LAMMPS Atom File

         3000 atoms
         2000 bonds
         1000 angles
           0 dihedrals
           0 impropers

           2 atom types
           1 bond types
           1 angle types

         0.0  74.598430336 xlo xhi
         0.0  74.598430336 ylo yhi
         0.0  74.598430336 zlo zhi

Masses

         1   12.01070
         2   15.99990

Atoms

       1    1  1   0.70000    -22.153083672700     26.864093073500    -29.901526007300
       2    1  2  -0.35000    -22.386932313400     27.976493998100    -30.132781269100
       3    1  2  -0.35000    -21.919235031900     25.751692148800    -29.670270745500
       4    2  1   0.70000     33.190485735000     16.948962796800    -31.500625380500
       5    2  2  -0.35000     33.883016674000     17.211575797600    -32.393393721300
       6    2  2  -0.35000     32.497954796000     16.686349796000    -30.607857039700
       7    3  1   0.70000     11.501129243100     29.797369799400     -0.612719286349
       8    3  2  -0.35000     10.628170715900     29.120914654900     -0.967616239410
       9    3  2  -0.35000     12.374087770400     30.473824943800     -0.257822333289
      10    4  1   0.70000     -8.571706444920     14.045276003200     35.516971223500
      11    4  2  -0.35000     -8.282055129880     14.669662762800     34.583245733800
      12    4  2  -0.35000     -8.861357759950     13.420889243700     36.450696713300
      13    5  1   0.70000    -33.376793504300     23.386994967000    -16.974187670400
      14    5  2  -0.35000    -33.880257434500     23.586348659100    -18.000044471600
      15    5  2  -0.35000    -32.873329574100     23.187641274800    -15.948330869300
      16    6  1   0.70000     13.127330198900      3.009637291030     -4.275759199140
      17    6  2  -0.35000     13.908561495300      3.751335981490     -4.706062248330
      18    6  2  -0.35000     12.346098902500      2.267938600580     -3.845456149950
      19    7  1   0.70000      3.030147599850    -28.642228098800     34.797844006400
      20    7  2  -0.35000      2.130111892810    -28.430229011700     34.097421196100
      21    7  2  -0.35000      3.930183306900    -28.854227185800     35.498266816600
      22    8  1   0.70000    -10.668260296000    -34.606341528400    -19.222201977700
      23    8  2  -0.35000     -9.666374500860    -35.185512853600    -19.302110860800
      24    8  2  -0.35000    -11.670146091200    -34.027170203300    -19.142293094700
      25    9  1   0.70000     -7.751216847200      4.522875005280     16.185390921200
      26    9  2  -0.35000     -7.024351133180      3.861838968410     16.802073653000
      27    9  2  -0.35000     -8.478082561210      5.183911042150     15.568708189300
      28   10  1   0.70000     22.359227093400    -22.386275325800     37.004775985800
      29   10  2  -0.35000     21.931663646900    -22.182536951700     38.063681162934
      30   10  2  -0.35000     22.786790539900    -22.590013699900     35.945870808600
      31   11  1   0.70000    -18.951000081200     30.738536760700      1.497646117320
      32   11  2  -0.35000    -19.442563865100     31.276142874400      2.400389000310
      33   11  2  -0.35000    -18.459436297200     30.200930646900      0.594903234331
      34   12  1   0.70000    -17.412323127400     26.750350390100      2.651450753880
      35   12  2  -0.35000    -16.949870040000     26.492000231900      1.619466094270
      36   12  2  -0.35000    -17.874776214800     27.008700548300      3.683435413500
      37   13  1   0.70000     25.654816502300     -2.832294965590      9.104717180160
      38   13  2  -0.35000     26.414052681100     -2.760502258030      8.230642679890
      39   13  2  -0.35000     24.895580323600     -2.904087673150      9.978791680420
      40   14  1   0.70000    -34.830625060100    -10.811604625800     28.177240406700
      41   14  2  -0.35000    -35.762767874600    -10.220870751100     27.819828511900
      42   14  2  -0.35000    -33.898482245500    -11.402338500600     28.534652301500
      43   15  1   0.70000     36.581652732500     25.577990797200    -21.412768737500
      44   15  2  -0.35000     36.213572309300     25.612516343000    -20.313257578500
      45   15  2  -0.35000     36.949733155700     25.543465251400    -22.512279896500
      46   16  1   0.70000    -17.533201089100     22.292708039800     22.571807131700
      47   16  2  -0.35000    -18.021348277300     21.664941079700     21.727283025200
      48   16  2  -0.35000    -17.045053901000     22.920474999900     23.416331238200
      49   17  1   0.70000     -5.269744445020     29.818211508000     27.068041062700
      50   17  2  -0.35000     -4.641185407040     30.349546900800     27.885473773200
      51   17  2  -0.35000     -5.898303483000     29.286876115300     26.250608352200
      52   18  1   0.70000      4.426355602450     34.315919761700    -27.312870070000
      53   18  2  -0.35000      5.070354607730     34.900032748600    -28.080774556100
      54   18  2  -0.35000      3.782356597180     33.731806774800    -26.544965583900
      55   19  1   0.70000     33.177008710100      6.790574082260     29.968732667800
      56   19  2  -0.35000     33.456885449400      6.041239157320     30.808831579200
      57   19  2  -0.35000     32.897131970700      7.539909007190     29.128633756300
      58   20  1   0.70000    -28.758396427700     30.570973460300    -27.770834795800
      59   20  2  -0.35000    -28.478896459300     31.594375660200    -28.240012485700
      60   20  2  -0.35000    -29.037896396100     29.547571260300    -27.301657105800
      61   21  1   0.70000    -17.297858760000    -32.747282822300     11.477716413500
      62   21  2  -0.35000    -17.073761788500    -33.254803928900     10.458990310100
      63   21  2  -0.35000    -17.521955731400    -32.239761715600     12.496442516900
      64   22  1   0.70000     -2.013664552810    -31.975561720800    -35.080844564100
      65   22  2  -0.35000     -2.723147702540    -32.681945589200    -35.666724663300
      66   22  2  -0.35000     -1.304181403080    -31.269177852400    -34.494964464900
      67   23  1   0.70000      0.373087733490      6.523845539810     26.365461848000
      68   23  2  -0.35000      1.528492688040      6.625744163030     26.381463772600
      69   23  2  -0.35000     -0.782317221058      6.421946916600     26.349459923400
      70   24  1   0.70000     -3.769721416580     -6.459330450370     -5.441104426570
      71   24  2  -0.35000     -4.341478532940     -6.583245518390     -6.442772463300
      72   24  2  -0.35000     -3.197964300230     -6.335415382360     -4.439436389830
      73   25  1   0.70000     10.550985795100     27.438695632800      6.169177025800
      74   25  2  -0.35000     10.371143489900     27.648323866000      7.295814833220
      75   25  2  -0.35000     10.730828100200     27.229067399600      5.042539218380
      76   26  1   0.70000    -17.036705051300     18.246427572500    -27.392115521600
      77   26  2  -0.35000    -16.366499974300     17.348736097400    -27.091158431000
      78   26  2  -0.35000    -17.706910128400     19.144119047500    -27.693072612300
      79   27  1   0.70000    -35.439234990500    -27.522305748200     27.930620792800
      80   27  2  -0.35000    -34.808736314900    -28.493401263400     27.859593188900
      81   27  2  -0.35000    -36.069733666200    -26.551210233100     28.001648396700
      82   28  1   0.70000     -4.027590114230     -0.956708900732     23.835494350700
      83   28  2  -0.35000     -3.604471211540     -1.561054568270     22.940320228900
      84   28  2  -0.35000     -4.450709016910     -0.352363233194     24.730668472500
      85   29  1   0.70000     29.782919087800    -12.230863655700      2.819188539730
      86   29  2  -0.35000     28.903447217800    -12.985916485400      2.774194603270
      87   29  2  -0.35000     30.662390957700    -11.475810826000      2.864182476190
      88   30  1   0.70000     30.327172677200     27.592759760700     34.422872530700
      89   30  2  -0.35000     31.180554832500     28.318374006800     34.724240848300
      90   30  2  -0.35000     29.473790521900     26.867145514600     34.121504213000
      91   31  1   0.70000     -8.671641343080    -20.639919771600    -32.279899332700
      92   31  2  -0.35000     -8.899474229660    -21.652951055200    -32.797064484500
      93   31  2  -0.35000     -8.443808456500    -19.626888487900    -31.762734181000
      94   32  1   0.70000     16.401170170900    -29.647427534000    -30.508922329900
      95   32  2  -0.35000     16.821467315200    -30.176420378700    -31.451852274700
      96   32  2  -0.35000     15.980873026700    -29.118434689300    -29.565992385100
      97   33  1   0.70000    -33.005033851900    -13.464223411200    -26.927145216300
      98   33  2  -0.35000    -32.930108487100    -14.162156422900    -26.003632519600
      99   33  2  -0.35000    -33.079959216600    -12.766290399600    -27.850657913000
     100   34  1   0.70000     24.094270173600    -31.982409874600      2.146388165810
     101   34  2  -0.35000     23.552866766300    -32.106886008800      3.164714264140
     102   34  2  -0.35000     24.635673581000    -31.857933740500      1.128062067480
     103   35  1   0.70000     13.805801895900     36.198595111700    -20.572533735900
     104   35  2  -0.35000     14.463083778800     36.382784925600    -19.634634680100
     105   35  2  -0.35000     13.148520013000     36.014405297800    -21.510432791800
     106   36  1   0.70000      6.694339775280     13.892921972000    -19.697803755300
     107   36  2  -0.35000      6.941450182290     15.024467014500    -19.762164172900
     108   36  2  -0.35000      6.447229368280     12.761376929400    -19.633443337800
     109   37  1   0.70000     29.828832344900     37.105121411100     24.703023166900
     110   37  2  -0.35000     28.832691492400     37.488449580134     24.248751313300
     111   37  2  -0.35000     30.824973197300     36.721793242100     25.157295020500
     112   38  1   0.70000     -5.237375486270    -36.489476986100     20.821995619400
     113   38  2  -0.35000     -5.452037184600    -36.143200204900     19.735895833000
     114   38  2  -0.35000     -5.022713787930    -36.835753767300     21.908095405800
     115   39  1   0.70000     24.379101965400     -3.864159592880     36.607017847800
     116   39  2  -0.35000     24.595463997900     -2.731601008560     36.733897806700
     117   39  2  -0.35000     24.162739932800     -4.996718177190     36.480137888900
     118   40  1   0.70000     -9.007966399030    -21.135469373100     -4.797213260040
     119   40  2  -0.35000     -8.196453670550    -21.683182861700     -5.419352332860
     120   40  2  -0.35000     -9.819479127520    -20.587755884500     -4.175074187220
     121   41  1   0.70000     28.140895188200    -32.219040930500     10.126891097300
     122   41  2  -0.35000     27.054523099700    -31.944155339600      9.827168563600
     123   41  2  -0.35000     29.227267276700    -32.493926521500     10.426613631000
     124   42  1   0.70000     23.063187038100     24.661523042900     -5.040160936490
     125   42  2  -0.35000     24.028754519100     25.292720700000     -4.918222602780
     126   42  2  -0.35000     22.097619557100     24.030325385700     -5.162099270200
     127   43  1   0.70000    -21.807525144400    -17.711437929200    -17.028536956200
     128   43  2  -0.35000    -20.810875512400    -17.445905075000    -16.497705707700
     129   43  2  -0.35000    -22.804174776400    -17.976970783300    -17.559368204700
     130   44  1   0.70000    -28.962526318300     36.352068513100      7.228781169610
     131   44  2  -0.35000    -27.931450470100     36.452229927600      7.750748875880
     132   44  2  -0.35000    -29.993602166400     36.251907098700      6.706813463330
     133   45  1   0.70000     20.947193810200    -15.571802737300    -19.630434675800
     134   45  2  -0.35000     21.265964212900    -15.413279963700    -20.734452773800
     135   45  2  -0.35000     20.628423407600    -15.730325510900    -18.526416577800
     136   46  1   0.70000     30.711232673800      8.708697836690    -13.204014926400
     137   46  2  -0.35000     30.840772109600      7.663340417120    -12.718167831200
     138   46  2  -0.35000     30.581693238000      9.754055256260    -13.689862021600
     139   47  1   0.70000     -4.624773659350      2.512069519050      3.619655777500
     140   47  2  -0.35000     -5.472620259220      1.720401207950      3.615481057720
     141   47  2  -0.35000     -3.776927059480      3.303737830150      3.623830497270
     142   48  1   0.70000     16.874298331200    -14.928425356300     16.000226010200
     143   48  2  -0.35000     17.405386644800    -13.897150192300     15.996134653500
     144   48  2  -0.35000     16.343210017600    -15.959700520300     16.004317366800
     145   49  1   0.70000     27.187709253100     15.213102954800    -29.241738581100
     146   49  2  -0.35000     27.039573345700     15.899675830700    -28.318552013400
     147   49  2  -0.35000     27.335845160600     14.526530078800    -30.164925148900
     148   50  1   0.70000     13.813150135800    -27.358046689200     29.139162257000
     149   50  2  -0.35000     13.660941106200    -28.129374392700     29.992090146800
     150   50  2  -0.35000     13.965359165500    -26.586718985700     28.286234367300
     151   51  1   0.70000      1.011311909650     10.656908958100    -35.511799578200
     152   51  2  -0.35000      0.736929324316     11.656854009500    -34.991776414200
     153   51  2  -0.35000      1.285694494980      9.656963906770    -36.031822742300
     154   52  1   0.70000    -25.034395677300     15.169740769000     22.691199242300
     155   52  2  -0.35000    -23.905789184000     15.035456124400     22.923179882800
     156   52  2  -0.35000    -26.163002170600     15.304025413600     22.459218601800
     157   53  1   0.70000     -3.120007001280     36.969180271400    -15.232709890100
     158   53  2  -0.35000     -2.799487448130     38.000416113434    -15.656289698500
     159   53  2  -0.35000     -3.440526554440     35.937944429300    -14.809130081700
     160   54  1   0.70000    -25.904628119000      9.457425142140     -7.727668246690
     161   54  2  -0.35000    -25.951798992000      8.301988081010     -7.636344063170
     162   54  2  -0.35000    -25.857457246000     10.612862203300     -7.818992430220
     163   55  1   0.70000    -22.567102400600    -35.309151671100    -12.451275310000
     164   55  2  -0.35000    -22.781163279400    -34.827654650900    -13.484686438100
     165   55  2  -0.35000    -22.353041521800    -35.790648691300    -11.417864181900
     166   56  1   0.70000      7.390595376870    -32.960743317300    -34.556756671300
     167   56  2  -0.35000      7.802021021860    -33.536955776800    -35.475619087600
     168   56  2  -0.35000      6.979169731880    -32.384530857800    -33.637894254900
     169   57  1   0.70000     28.684743351100    -14.993729606800     14.038365445100
     170   57  2  -0.35000     28.234552531800    -14.036597919900     13.562101694300
     171   57  2  -0.35000     29.134934170300    -15.950861293600     14.514629195900
     172   58  1   0.70000     24.525256380000      8.334618816850    -25.729583543700
     173   58  2  -0.35000     24.356380074600      8.791633032320    -24.676863827800
     174   58  2  -0.35000     24.694132685300      7.877604601370    -26.782303259700
     175   59  1   0.70000    -13.955268814800     19.314000744200    -29.215921422600
     176   59  2  -0.35000    -14.959188382500     18.911129947500    -29.634777749600
     177   59  2  -0.35000    -12.951349247000     19.716871540900    -28.797065095600
     178   60  1   0.70000      5.570723156390    -18.182629568200     -2.181337400540
     179   60  2  -0.35000      4.894661636040    -17.265911685700     -2.400812102320
     180   60  2  -0.35000      6.246784676730    -19.099347450600     -1.961862698750
     181   61  1   0.70000    -19.202160169100     19.873589168400     36.157678405100
     182   61  2  -0.35000    -19.230820230900     20.127758529500     37.289127271300
     183   61  2  -0.35000    -19.173500107400     19.619419807400     35.026229538900
     184   62  1   0.70000    -20.179667170500      1.240845788440    -16.459786033500
     185   62  2  -0.35000    -19.812276086900      0.820630048846    -17.476664848300
     186   62  2  -0.35000    -20.547058254100      1.661061528040    -15.442907218800
     187   63  1   0.70000     -9.630330323970     15.759793798800    -35.183782780300
     188   63  2  -0.35000     -8.951521198640     16.610738958900    -34.782895631900
     189   63  2  -0.35000    -10.309139449300     14.908848638600    -35.584669928700
     190   64  1   0.70000    -33.725374782900    -34.383506147300    -32.402976070600
     191   64  2  -0.35000    -34.094550358000    -34.694023022600    -33.457911454800
     192   64  2  -0.35000    -33.356199207900    -34.072989271900    -31.348040686300
     193   65  1   0.70000    -21.862674321800     20.017191973900      2.277568087360
     194   65  2  -0.35000    -22.772895067500     19.299613746700      2.324255151720
     195   65  2  -0.35000    -20.952453576200     20.734770201200      2.230881022990
     196   66  1   0.70000     -2.320091354930    -10.765460142400     37.111775655800
     197   66  2  -0.35000     -1.876841353420    -10.664523486700     36.044563761400
     198   66  2  -0.35000     -2.763341356440    -10.866396798000     38.178987550334
     199   67  1   0.70000     14.684037617700     24.097938594200    -24.949993770600
     200   67  2  -0.35000     14.268518178600     23.648890464200    -23.964448554700
     201   67  2  -0.35000     15.099557056900     24.546986724200    -25.935538986600
     202   68  1   0.70000    -29.930793319700     19.085408747400    -14.832340479100
     203   68  2  -0.35000    -31.046961123600     19.341001579800    -14.646755626400
     204   68  2  -0.35000    -28.814625515800     18.829815915000    -15.017925331900
     205   69  1   0.70000     34.381975006600     34.195602513900     -8.811975812750
     206   69  2  -0.35000     35.380585676600     33.740552013900     -9.187882413230
     207   69  2  -0.35000     33.383364336700     34.650653013900     -8.436069212270
     208   70  1   0.70000     -5.691653049570     15.892516982700     15.748749051100
     209   70  2  -0.35000     -5.924959742260     16.766057842000     15.022048043700
     210   70  2  -0.35000     -5.458346356870     15.018976123300     16.475450058600
     211   71  1   0.70000     37.252277648900    -30.192748291700     36.931534948100
     212   71  2  -0.35000     36.768486264200    -30.865587538200     36.119849513800
     213   71  2  -0.35000     37.736069033634    -29.519909045100     37.743220382434
     214   72  1   0.70000     14.004771883800    -32.757237861800      6.413519110100
     215   72  2  -0.35000     14.919101472400    -32.464399534600      7.064554529700
     216   72  2  -0.35000     13.090442295200    -33.050076188900      5.762483690500
     217   73  1   0.70000    -22.519484178100    -19.287539087100      2.323508705030
     218   73  2  -0.35000    -22.468392687200    -19.464076910500      3.468857584820
     219   73  2  -0.35000    -22.570575669000    -19.111001263600      1.178159825240
     220   74  1   0.70000    -13.819516931500    -13.712375166900      6.949957260960
     221   74  2  -0.35000    -13.846078567600    -14.605081126500      6.209706932210
     222   74  2  -0.35000    -13.792955295400    -12.819669207300      7.690207589710
     223   75  1   0.70000    -18.870738760800     -9.514107735480     16.791705497100
     224   75  2  -0.35000    -19.385105317000    -10.169808143600     15.984807721300
     225   75  2  -0.35000    -18.356372204600     -8.858407327400     17.598603273000
     226   76  1   0.70000    -34.523893671200    -11.430396652500     -8.495127755440
     227   76  2  -0.35000    -34.850639020300    -10.903075982800     -7.514938800100
     228   76  2  -0.35000    -34.197148322100    -11.957717322100     -9.475316710780
     229   77  1   0.70000    -34.332328692400      2.873680991380     29.659167863500
     230   77  2  -0.35000    -35.102943322700      3.740393859930     29.635463539100
     231   77  2  -0.35000    -33.561714062100      2.006968122820     29.682872187900
     232   78  1   0.70000     -6.269956864650    -31.600468133400     11.762762770000
     233   78  2  -0.35000     -5.781559956870    -32.647460762800     11.658480008100
     234   78  2  -0.35000     -6.758353772440    -30.553475503900     11.867045531800
     235   79  1   0.70000    -17.090116497200      3.892201110600    -13.037112886800
     236   79  2  -0.35000    -17.734427786200      4.693854358840    -13.573596840300
     237   79  2  -0.35000    -16.445805208200      3.090547862370    -12.500628933200
     238   80  1   0.70000     -5.411593844310    -25.867370697800      9.203216490390
     239   80  2  -0.35000     -5.354220418080    -24.898322113600      8.568194339920
     240   80  2  -0.35000     -5.468967270540    -26.836419281900      9.838238640860
     241   81  1   0.70000     31.688741442600     -6.091731823290     36.725336868700
     242   81  2  -0.35000     31.414729318200     -7.213094580980     36.839630006500
     243   81  2  -0.35000     31.962753567000     -4.970369065590     36.611043731000
     244   82  1   0.70000     32.147592072600      9.599084610600    -29.063932217600
     245   82  2  -0.35000     31.571578450000      9.066103532570    -29.918180119000
     246   82  2  -0.35000     32.723605695200     10.132065688600    -28.209684316100
     247   83  1   0.70000     22.498902180100    -22.236842056600     -0.271201987068
     248   83  2  -0.35000     23.560125760700    -22.603745274900     -0.562383271388
     249   83  2  -0.35000     21.437678599500    -21.869938838300      0.019979297251
     250   84  1   0.70000     34.161560698800     24.614477256100      5.420233550170
     251   84  2  -0.35000     35.116039797300     23.958148875600      5.481899646750
     252   84  2  -0.35000     33.207081600300     25.270805636600      5.358567453580
     253   85  1   0.70000     22.070247029700     22.088632459000     25.960182298600
     254   85  2  -0.35000     23.110200740600     21.879030303500     26.429397830600
     255   85  2  -0.35000     21.030293318700     22.298234614400     25.490966766500
     256   86  1   0.70000    -24.772687971200     20.470079251300    -29.018652016900
     257   86  2  -0.35000    -24.275842214700     20.784752390400    -28.018789471500
     258   86  2  -0.35000    -25.269533727600     20.155406112200    -30.018514562400
     259   87  1   0.70000     21.671326707400    -29.049508156400     23.763046898500
     260   87  2  -0.35000     22.465644879600    -29.327651727300     22.964739441900
     261   87  2  -0.35000     20.877008535100    -28.771364585400     24.561354355000
     262   88  1   0.70000    -13.753508155100    -20.998261818400    -10.519559797400
     263   88  2  -0.35000    -14.333573472200    -20.482035445600    -11.381322270500
     264   88  2  -0.35000    -13.173442838000    -21.514488191200     -9.657797324380
     265   89  1   0.70000    -34.074059169200    -13.858186069100     18.517070560300
     266   89  2  -0.35000    -33.950230670400    -14.931153863600     18.940162293500
     267   89  2  -0.35000    -34.197887668000    -12.785218274500     18.093978827200
     268   90  1   0.70000     34.751305740000    -26.421133087100     35.753149354400
     269   90  2  -0.35000     35.083518425200    -26.899198266900     36.756487989000
     270   90  2  -0.35000     34.419093054700    -25.943067907200     34.749810719900
     271   91  1   0.70000     13.546927510100     18.205856587600     13.437916275000
     272   91  2  -0.35000     13.046526424100     18.212216655400     14.484414389000
     273   91  2  -0.35000     14.047328596200     18.199496519800     12.391418161000
     274   92  1   0.70000     23.339993447800      6.348123262470     35.118152002800
     275   92  2  -0.35000     23.093214718300      7.380007039020     34.649199840700
     276   92  2  -0.35000     23.586772177300      5.316239485920     35.587104164900
     277   93  1   0.70000    -27.546567582300     13.935721032900     17.587925698100
     278   93  2  -0.35000    -26.769748924200     14.360276640900     16.838322264100
     279   93  2  -0.35000    -28.323386240300     13.511165424900     18.337529132100
     280   94  1   0.70000     18.162792664800     11.059803981700    -37.199276308600
     281   94  2  -0.35000     17.617512008000     11.277275641500    -38.199763731034
     282   94  2  -0.35000     18.708073321600     10.842332321900    -36.198788886100
     283   95  1   0.70000     12.343810610700     32.933469903400     16.291508289600
     284   95  2  -0.35000     12.681301902900     34.038368127000     16.187107411800
     285   95  2  -0.35000     12.006319318600     31.828571679900     16.395909167400
     286   96  1   0.70000    -11.667070757900     -1.054448816870     -6.441710335960
     287   96  2  -0.35000    -12.015735989900     -1.604584345940     -7.401597545810
     288   96  2  -0.35000    -11.318405525900     -0.504313287808     -5.481823126100
     289   97  1   0.70000    -24.889978515700      9.196263766670    -11.865574340000
     290   97  2  -0.35000    -24.549826952000      8.419065989360    -12.656687814000
     291   97  2  -0.35000    -25.230130079400      9.973461543980    -11.074460866100
     292   98  1   0.70000     -7.402653387700    -20.726089370900     35.696593023400
     293   98  2  -0.35000     -7.466503912300    -19.796578984100     36.387631047900
     294   98  2  -0.35000     -7.338802863090    -21.655599757700     35.005554998900
     295   99  1   0.70000    -17.326419309800    -21.308205933400     25.781795464300
     296   99  2  -0.35000    -18.353433716300    -20.787679074700     25.640752214300
     297   99  2  -0.35000    -16.299404903400    -21.828732792000     25.922838714300
     298  100  1   0.70000     36.568253816600     18.468755477700     -6.605790126810
     299  100  2  -0.35000     37.461840843934     17.794824804400     -6.910617409670
     300  100  2  -0.35000     35.674666789400     19.142686150900     -6.300962843960
     301  101  1   0.70000      9.753873714540    -27.863386464200    -22.235001865300
     302  101  2  -0.35000      8.806898328030    -27.245678780000    -21.975627937700
     303  101  2  -0.35000     10.700849101100    -28.481094148300    -22.494375792800
     304  102  1   0.70000    -14.570778772000      8.602427686630    -22.079529676300
     305  102  2  -0.35000    -15.400557374600      8.357924315190    -22.852372203600
     306  102  2  -0.35000    -13.741000169300      8.846931058070    -21.306687149000
     307  103  1   0.70000    -15.187723756100     10.299385035700    -35.717028158300
     308  103  2  -0.35000    -14.537839668700      9.338831950930    -35.692770287300
     309  103  2  -0.35000    -15.837607843500     11.259938120400    -35.741286029400
     310  104  1   0.70000      0.375215921876    -10.162965568700    -22.722791531600
     311  104  2  -0.35000     -0.016623111008     -9.605507971220    -23.661569034200
     312  104  2  -0.35000      0.767054954760    -10.720423166200    -21.784014029100
     313  105  1   0.70000     27.638031512000    -10.387507141400      0.134638139617
     314  105  2  -0.35000     27.745331231300    -11.021164426000     -0.831056023141
     315  105  2  -0.35000     27.530731792700     -9.753849856910      1.100332302370
     316  106  1   0.70000     30.970430647400    -13.148804589400     -1.071362781570
     317  106  2  -0.35000     30.471753223600    -12.835898701000     -0.071857537949
     318  106  2  -0.35000     31.469108071100    -13.461710477800     -2.070868025190
     319  107  1   0.70000     32.045901469100     17.346805691800     11.409325436500
     320  107  2  -0.35000     32.636982336300     18.338291848700     11.524123559400
     321  107  2  -0.35000     31.454820601900     16.355319534800     11.294527313500
     322  108  1   0.70000    -35.461672636200     37.227747713300      0.387168117466
     323  108  2  -0.35000    -36.445178355500     37.811937004034      0.194711959521
     324  108  2  -0.35000    -34.478166917000     36.643558422500      0.579624275411
     325  109  1   0.70000     22.215931357500     29.842531257900    -13.173240874700
     326  109  2  -0.35000     21.504934552400     29.691355095600    -14.077248237000
     327  109  2  -0.35000     22.926928162600     29.993707420200    -12.269233512400
     328  110  1   0.70000     12.830179722100      0.392392668246      5.282687863970
     329  110  2  -0.35000     13.567561509300     -0.465750927607      5.026840900390
     330  110  2  -0.35000     12.092797934900      1.250536264100      5.538534827560
     331  111  1   0.70000     -9.721727845180      7.754634507690    -26.816154181300
     332  111  2  -0.35000    -10.559824462900      6.953371505630    -26.850383712800
     333  111  2  -0.35000     -8.883631227420      8.555897509750    -26.781924649900
     334  112  1   0.70000     35.833368983200      1.689115753020    -34.756642693800
     335  112  2  -0.35000     35.601447221900      2.601039379170    -35.435028717200
     336  112  2  -0.35000     36.065290744400      0.777192126875    -34.078256670400
     337  113  1   0.70000    -22.808829682800     -4.647868996640    -29.340742450300
     338  113  2  -0.35000    -23.311538435900     -3.926490528080    -30.097377775100
     339  113  2  -0.35000    -22.306120929700     -5.369247465200    -28.584107125600
     340  114  1   0.70000    -12.506742003300    -23.088474809100    -35.670634553300