LAMMPS Atom File

         3000 atoms
         2000 bonds
         1000 angles
           0 dihedrals
           0 impropers

           2 atom types
           1 bond types
           1 angle types

         0.0  41.6396503879 xlo xhi
         0.0  41.6396503879 ylo yhi
         0.0  41.6396503879 zlo zhi

Masses

         1   12.01070
         2   15.99990

Atoms

       1    1  1   0.70000    -11.200715664700     19.424405512500     20.742976818700
       2    1  2  -0.35000    -10.484124004300     18.884056232500     21.477904738859
       3    1  2  -0.35000    -11.917307325100     19.964754792400     20.008048898500
       4    2  1   0.70000     19.479146674300      7.164937597330    -19.620306299300
       5    2  2  -0.35000     19.456217197100      6.309439636770    -20.403375567300
       6    2  2  -0.35000     19.502076151500      8.020435557880    -18.837237031200
       7    3  1   0.70000      4.019342796450     17.691085160400     -1.178100377630
       8    3  2  -0.35000      3.458294504570     18.594432413300     -0.714647516103
       9    3  2  -0.35000      4.580391088330     16.787737907500     -1.641553239170
      10    4  1   0.70000     -2.863414953340      9.072939894920     19.539022038300
      11    4  2  -0.35000     -3.640779677660      8.599333411880     18.819994233100
      12    4  2  -0.35000     -2.086050229020      9.546546377970     20.258049843400
      13    5  1   0.70000    -20.814666997200     14.137366858300     -8.722759640800
      14    5  2  -0.35000    -21.864262437759     14.566375706700     -8.967506079260
      15    5  2  -0.35000    -19.765071556600     13.708358009900     -8.478013202330
      16    6  1   0.70000     11.853902280900     -1.865700445480     -6.259836958310
      17    6  2  -0.35000     11.198274260500     -2.532888552940     -5.573825348950
      18    6  2  -0.35000     12.509530301300     -1.198512338030     -6.945848567670
      19    7  1   0.70000      3.744882446520    -16.583631141200     15.794945028500
      20    7  2  -0.35000      3.266490395270    -16.988860456100     16.770921589500
      21    7  2  -0.35000      4.223274497770    -16.178401826300     14.818968467500
      22    8  1   0.70000     -9.161515142290    -20.187435472400     -7.202789485310
      23    8  2  -0.35000     -8.298769922250    -20.746034294700     -6.664980931090
      24    8  2  -0.35000    -10.024260362300    -19.628836650000     -7.740598039530
      25    9  1   0.70000     -0.806405377120      0.368814413808      6.865926932610
      26    9  2  -0.35000     -1.443878205940      1.143688204860      7.447991362420
      27    9  2  -0.35000     -0.168932548300     -0.406059377243      6.283862502790
      28   10  1   0.70000      8.678824560180     -9.249171787910     18.350960329200
      29   10  2  -0.35000      9.534903670140     -8.517978083560     18.630396053800
      30   10  2  -0.35000      7.822745450210     -9.980365492270     18.071524604600
      31   11  1   0.70000    -10.877026902700     17.144665155000     -1.154525226140
      32   11  2  -0.35000    -11.954807871900     16.730567622000     -1.042670786680
      33   11  2  -0.35000     -9.799245933520     17.558762688100     -1.266379665600
      34   12  1   0.70000     -6.813111417910     12.867719508300      6.360312377090
      35   12  2  -0.35000     -6.110766820050     12.665544934400      5.459514115820
      36   12  2  -0.35000     -7.515456015780     13.069894082200      7.261110638370
      37   13  1   0.70000     11.947166498700      2.396037483740      0.121887046808
      38   13  2  -0.35000     11.378903430800      2.068710997150     -0.834948600971
      39   13  2  -0.35000     12.515429566600      2.723363970330      1.078722694590
      40   14  1   0.70000    -14.555391891600     -8.295168377510     18.507576305000
      41   14  2  -0.35000    -13.603497678600     -8.219126021570     17.849005908200
      42   14  2  -0.35000    -15.507286104500     -8.371210733440     19.166146701700
      43   15  1   0.70000    -20.672349230600     10.064301941600    -11.856415339300
      44   15  2  -0.35000    -21.637387414459      9.503919379330    -11.539756709600
      45   15  2  -0.35000    -19.707311046800     10.624684503800    -12.173073968900
      46   16  1   0.70000    -11.283429033700     15.233532055300     16.504921617700
      47   16  2  -0.35000    -12.374708359900     15.391135021800     16.144545790100
      48   16  2  -0.35000    -10.192149707400     15.075929088800     16.865297445200
      49   17  1   0.70000     -4.027345737400     20.542925049300     11.392159080700
      50   17  2  -0.35000     -3.347364587240     20.863992442259     10.508902965700
      51   17  2  -0.35000     -4.707326887550     20.221857656300     12.275415195600
      52   18  1   0.70000      4.914229960330     14.507008612500    -13.581836278500
      53   18  2  -0.35000      5.939057574610     13.963706884600    -13.569523947200
      54   18  2  -0.35000      3.889402346050     15.050310340400    -13.594148609700
      55   19  1   0.70000     17.485368212100      4.072728568870     19.555671956800
      56   19  2  -0.35000     18.325555994500      3.336031247220     19.867058447400
      57   19  2  -0.35000     16.645180429600      4.809425890510     19.244285466300
      58   20  1   0.70000    -10.109301848700    -18.916029725700      6.304556929000
      59   20  2  -0.35000    -11.038948020300    -19.188800782800      6.942486349850
      60   20  2  -0.35000     -9.179655677070    -18.643258668600      5.666627508140
      61   21  1   0.70000     -1.088639048110    -13.417002806500    -19.868141433700
      62   21  2  -0.35000     -0.599461366428    -12.366303164600    -19.819814854400
      63   21  2  -0.35000     -1.577816729790    -14.467702448400    -19.916468013100
      64   22  1   0.70000     -0.687021985309      3.495995822710     11.931402001100
      65   22  2  -0.35000     -0.913155807089      4.629309900670     12.031714988100
      66   22  2  -0.35000     -0.460888163530      2.362681744760     11.831089014100
      67   23  1   0.70000     -3.311609721910     -1.165932514620     -4.161372436340
      68   23  2  -0.35000     -4.048516034140     -0.345308856259     -4.520741186140
      69   23  2  -0.35000     -2.574703409680     -1.986556172980     -3.802003686540
      70   24  1   0.70000      5.292783503450     17.441174195000      7.729431180930
      71   24  2  -0.35000      4.457878503220     17.749415196100      8.473421184790
      72   24  2  -0.35000      6.127688503690     17.132933194000      6.985441177060
      73   25  1   0.70000     -8.494699584160     12.482441270100    -10.509188162400
      74   25  2  -0.35000     -8.203562736350     11.419814485900    -10.146333297000
      75   25  2  -0.35000     -8.785836431960     13.545068054400    -10.872043027700
      76   26  1   0.70000    -18.948891908400    -16.022935231200     15.800384190300
      77   26  2  -0.35000    -18.988449406500    -15.894258511800     14.648222089600
      78   26  2  -0.35000    -18.909334410300    -16.151611950500     16.952546291000
      79   27  1   0.70000     10.755802339500     -4.505026436400     -0.719193362167
      80   27  2  -0.35000      9.684818420170     -4.829746385020     -0.413987858606
      81   27  2  -0.35000     11.826786258900     -4.180306487790     -1.024398865730
      82   28  1   0.70000    -20.160333078900     16.096162970400    -17.796677790500
      83   28  2  -0.35000    -20.353058449900     16.279566114800    -18.925757157900
      84   28  2  -0.35000    -19.967607707900     15.912759826000    -16.667598423000
      85   29  1   0.70000     -6.003681099820     -9.242712234080    -19.508792637300
      86   29  2  -0.35000     -7.088634853840     -9.216349431520    -19.099182634600
      87   29  2  -0.35000     -4.918727345800     -9.269075036630    -19.918402640000
      88   30  1   0.70000      9.227249468350    -14.366794767000    -19.975465219600
      89   30  2  -0.35000      8.724567948780    -13.623492252700    -20.710592869900
      90   30  2  -0.35000      9.729930987910    -15.110097281200    -19.240337569300
      91   31  1   0.70000    -18.227535836800     -4.146068819590    -12.086285472100
      92   31  2  -0.35000    -18.267693201000     -4.454731515400    -10.968826423100
      93   31  2  -0.35000    -18.187378472600     -3.837406123780    -13.203744521200
      94   32  1   0.70000     11.834590203300    -17.095031307800      2.237281243470
      95   32  2  -0.35000     12.445817432300    -17.370494514300      3.183918077910
      96   32  2  -0.35000     11.223362974200    -16.819568101200      1.290644409030
      97   33  1   0.70000      3.109632505900     18.372686920400    -12.508194165100
      98   33  2  -0.35000      3.925906131540     19.125712187700    -12.173156383800
      99   33  2  -0.35000      2.293358880260     17.619661653100    -12.843231946400
     100   34  1   0.70000      3.284614159700      5.626716035060    -11.290787490600
     101   34  2  -0.35000      2.584794572360      4.705878740070    -11.201842443900
     102   34  2  -0.35000      3.984433747050      6.547553330050    -11.379732537300
     103   35  1   0.70000     13.740521572000     19.173458100000     11.180987821500
     104   35  2  -0.35000     14.282057293800     18.377732091500     10.533562782200
     105   35  2  -0.35000     13.198985850200     19.969184108500     11.828412860700
     106   36  1   0.70000     -3.620771837280    -17.045865115700     13.659593598300
     107   36  2  -0.35000     -4.778705672120    -17.093035709500     13.608955971800
     108   36  2  -0.35000     -2.462838002440    -16.998694521900     13.710231224800
     109   37  1   0.70000     11.399539252400     -2.877210735240    -16.212551225200
     110   37  2  -0.35000     12.389021026500     -2.907602011640    -15.607900756700
     111   37  2  -0.35000     10.410057478300     -2.846819458830    -16.817201693600
     112   38  1   0.70000     -9.581082562410    -13.546372589200     -5.944738744650
     113   38  2  -0.35000    -10.445392716100    -12.774227056200     -5.896166797770
     114   38  2  -0.35000     -8.716772408730    -14.318518122300     -5.993310691530
     115   39  1   0.70000     16.331613307200     13.803556750300     -6.837285149730
     116   39  2  -0.35000     16.432295826000     14.299038706800     -7.881296960570
     117   39  2  -0.35000     16.230930788300     13.308074793800     -5.793273338890
     118   40  1   0.70000    -12.658649864900     -8.719638522210     -5.137777296280
     119   40  2  -0.35000    -11.633399298700     -8.490325312640     -4.645967649760
     120   40  2  -0.35000    -13.683900431100     -8.948951731780     -5.629586942790
     121   41  1   0.70000    -16.824245720200    -17.890172018900      0.883737697720
     122   41  2  -0.35000    -17.076420527000    -18.953238979600      0.493998677466
     123   41  2  -0.35000    -16.572070913300    -16.827105058200      1.273476717970
     124   42  1   0.70000     12.601165636200     -6.704265982420     -7.977788496690
     125   42  2  -0.35000     12.398440669200     -5.936974411360     -7.131758808830
     126   42  2  -0.35000     12.803890603200     -7.471557553480     -8.823818184550
     127   43  1   0.70000     17.503076526900      4.071540212510     -7.980174851240
     128   43  2  -0.35000     17.091698648000      3.034272290010     -8.297103072890
     129   43  2  -0.35000     17.914454405900      5.108808135000     -7.663246629580
     130   44  1   0.70000     -3.348659775250     -0.771816635832      1.587991076200
     131   44  2  -0.35000     -4.164723630620     -1.550249052140      1.316545396160
     132   44  2  -0.35000     -2.532595919890      0.006615780472      1.859436756250
     133   45  1   0.70000      8.470525965890     -6.486520291370      7.920982834110
     134   45  2  -0.35000      7.627022386320     -7.280787771470      7.864054095300
     135   45  2  -0.35000      9.314029545450     -5.692252811260      7.977911572920
     136   46  1   0.70000     16.536083164900      6.415170914530    -13.995073428900
     137   46  2  -0.35000     15.558530660100      6.092656976320    -14.529840537000
     138   46  2  -0.35000     17.513635669700      6.737684852730    -13.460306320700
     139   47  1   0.70000      6.516724717890    -13.784706179400     15.565563555600
     140   47  2  -0.35000      7.104210520320    -13.467387204600     14.617001960300
     141   47  2  -0.35000      5.929238915450    -14.102025154200     16.514125151000
     142   48  1   0.70000     -0.711641173075      5.839232437820     20.332869934600
     143   48  2  -0.35000     -0.935905682403      4.959640086070     21.055104470359
     144   48  2  -0.35000     -0.487376663747      6.718824789570     19.610635398900
     145   49  1   0.70000    -14.829820376100      7.998722825220     13.422115680700
     146   49  2  -0.35000    -14.182876589200      7.255961507300     12.809441737000
     147   49  2  -0.35000    -15.476764163000      8.741484143140     14.034789624300
     148   50  1   0.70000     -1.325983212160     20.436426503900    -13.661504203300
     149   50  2  -0.35000     -2.278946624910     19.828801340600    -13.922755796500
     150   50  2  -0.35000     -0.373019799414     21.044051667159    -13.400252610100
     151   51  1   0.70000    -14.739609046800      3.758564452250     -3.751336682430
     152   51  2  -0.35000    -13.929350938600      2.928594642460     -3.766565370110
     153   51  2  -0.35000    -15.549867155000      4.588534262040     -3.736107994740
     154   52  1   0.70000    -15.846268959600    -20.128394049400     -6.643633833320
     155   52  2  -0.35000    -16.341055600200    -19.122369148700     -6.941459418940
     156   52  2  -0.35000    -15.351482319000    -21.134418950059     -6.345808247700
     157   53  1   0.70000      3.558757962970    -17.174978775600    -19.021482100600
     158   53  2  -0.35000      3.888408078270    -17.312330990500    -20.125141998600
     159   53  2  -0.35000      3.229107847670    -17.037626560700    -17.917822202500
     160   54  1   0.70000     16.306504644400     -7.598097259820      7.096612060530
     161   54  2  -0.35000     16.531377727200     -8.597185043890      6.551767407120
     162   54  2  -0.35000     16.081631561600     -6.599009475750      7.641456713940
     163   55  1   0.70000     -9.003389138100      7.491800609160    -14.798534195600
     164   55  2  -0.35000     -9.909940767330      6.824277619930    -15.078136059600
     165   55  2  -0.35000     -8.096837508870      8.159323598390    -14.518932331500
     166   56  1   0.70000      2.423728578130     -8.022579274670     -2.196490075670
     167   56  2  -0.35000      3.207575290740     -7.169017785370     -2.145332328330
     168   56  2  -0.35000      1.639881865530     -8.876140763980     -2.247647823010
     169   57  1   0.70000    -10.280333792400     10.575557648000    -20.296147645500
     170   57  2  -0.35000    -10.681119250200      9.909248684340    -21.156963178359
     171   57  2  -0.35000     -9.879548334520     11.241866611700    -19.435332112500
     172   58  1   0.70000     -9.969869457480      1.368694287080    -13.598807155100
     173   58  2  -0.35000    -10.891272130600      1.219887420280    -14.287627618300
     174   58  2  -0.35000     -9.048466784410      1.517501153880    -12.909986692000
     175   59  1   0.70000     20.510733998600     20.739543037200    -20.653820658700
     176   59  2  -0.35000     19.815863630200     21.040972659659    -21.532396411759
     177   59  2  -0.35000     21.205604366959     20.438113414700    -19.775244905600
     178   60  1   0.70000    -14.427071525400     14.137512321900      2.084338759800
     179   60  2  -0.35000    -15.295219697900     14.874410985900      1.863207329250
     180   60  2  -0.35000    -13.558923352800     13.400613658000      2.305470190350
     181   61  1   0.70000      3.801949630310     -8.263007489750    -16.012583094000
     182   61  2  -0.35000      3.744573986740     -8.414114987920    -17.161266932000
     183   61  2  -0.35000      3.859325273880     -8.111899991580    -14.863899256100
     184   62  1   0.70000     12.298287775100     17.467927944200    -14.829122598900
     185   62  2  -0.35000     11.455694006700     16.743942039800    -15.163009034300
     186   62  2  -0.35000     13.140881543500     18.191913848600    -14.495236163400
     187   63  1   0.70000    -15.911621010700      9.840369207180     -5.930630851680
     188   63  2  -0.35000    -16.273909083200      9.292681817980     -6.886866113640
     189   63  2  -0.35000    -15.549332938200     10.388056596400     -4.974395589710
     190   64  1   0.70000     16.773840226300    -19.688734783100     -7.011481214980
     191   64  2  -0.35000     16.198625331800    -20.418436243400     -7.705933232010
     192   64  2  -0.35000     17.349055120900    -18.959033322800     -6.317029197940
     193   65  1   0.70000     -4.112413262160     11.865044000200      9.016170345480
     194   65  2  -0.35000     -4.608981491690     11.944148171800      7.970817523000
     195   65  2  -0.35000     -3.615845032640     11.785939828500     10.061523168000
     196   66  1   0.70000    -20.664704607200    -17.401260553800     20.666474582200
     197   66  2  -0.35000    -20.223859291300    -16.803651852200     19.775340895600
     198   66  2  -0.35000    -21.105549923059    -17.998869255400     21.557608268659
     199   67  1   0.70000      1.999956303950    -18.298882160600      3.783676183700
     200   67  2  -0.35000      1.595698094600    -19.384851298200      3.730325154460
     201   67  2  -0.35000      2.404214513290    -17.212913023000      3.837027212940
     202   68  1   0.70000    -11.698652653600     -8.431433242930     -1.744315330580
     203   68  2  -0.35000    -10.670504445500     -7.918101686150     -1.902435459260
     204   68  2  -0.35000    -12.726800861600     -8.944764799720     -1.586195201900
     205   69  1   0.70000     -5.149339743670     -8.934526946260      5.626998266150
     206   69  2  -0.35000     -4.815903881030     -7.871297416970      5.304564562030
     207   69  2  -0.35000     -5.482775606320     -9.997756475550      5.949431970270
     208   70  1   0.70000    -12.949530353300     -4.582304580780      8.421826143700
     209   70  2  -0.35000    -13.692815246900     -4.774144242970      7.552156602420
     210   70  2  -0.35000    -12.206245459800     -4.390464918600      9.291495684970
     211   71  1   0.70000    -17.690577599500     -7.238829417360     -3.839063224040
     212   71  2  -0.35000    -17.014043471900     -8.074053418400     -3.402826542570
     213   71  2  -0.35000    -18.367111727100     -6.403605416310     -4.275299905520
     214   72  1   0.70000    -18.079276854100      6.078339740160     17.522044775500
     215   72  2  -0.35000    -19.208568692500      6.143524472960     17.779048461300
     216   72  2  -0.35000    -16.949985015800      6.013155007360     17.265041089700
     217   73  1   0.70000     -4.794984000480    -16.779998572700      8.676512223720
     218   73  2  -0.35000     -3.663580748800    -16.660500725100      8.902890108050
     219   73  2  -0.35000     -5.926387252170    -16.899496420200      8.450134339380
     220   74  1   0.70000     -7.476760024050      5.691987879260     -8.202091165820
     221   74  2  -0.35000     -8.075905635470      5.570053415400     -7.216314049610
     222   74  2  -0.35000     -6.877614412620      5.813922343120     -9.187868282020
     223   75  1   0.70000     -3.846364137060    -13.335280642500      7.113624620720
     224   75  2  -0.35000     -4.860897359070    -13.879052477900      6.969977370500
     225   75  2  -0.35000     -2.831830915040    -12.791508807200      7.257271870940
     226   76  1   0.70000     19.134453667200     -3.805597101250    -20.322922813400
     227   76  2  -0.35000     19.230610617000     -3.329080625980    -19.269696394400
     228   76  2  -0.35000     19.038296717400     -4.282113576520    -21.376149232459
     229   77  1   0.70000     19.078247866500      4.223020603150    -14.821987611700
     230   77  2  -0.35000     19.781076704900      3.794122450860    -14.004871953500
     231   77  2  -0.35000     18.375419028100      4.651918755430    -15.639103269900
     232   78  1   0.70000      8.408860106450    -11.091561604900      3.325657583670
     233   78  2  -0.35000      9.226088517790    -11.908018531000      3.220131229250
     234   78  2  -0.35000      7.591631695110    -10.275104678800      3.431183938090
     235   79  1   0.70000     16.225637644700     11.562493999200      3.123322662000
     236   79  2  -0.35000     16.437555582900     12.629490459600      3.526074869980
     237   79  2  -0.35000     16.013719706500     10.495497538900      2.720570454020
     238   80  1   0.70000     13.860238817500     13.825482604900     13.651533665700
     239   80  2  -0.35000     13.065514258500     13.981218582900     14.482051082900
     240   80  2  -0.35000     14.654963376600     13.669746626800     12.821016248400
     241   81  1   0.70000    -11.332091821100     10.593783820600    -14.560535022100
     242   81  2  -0.35000    -10.627748916100     11.354982915500    -14.040845682200
     243   81  2  -0.35000    -12.036434726200      9.832584725750    -15.080224362000
     244   82  1   0.70000     10.803718569200    -11.160581193300     14.348972616500
     245   82  2  -0.35000     11.395226170000    -10.768571546100     13.431341320900
     246   82  2  -0.35000     10.212210968500    -11.552590840600     15.266603912200
     247   83  1   0.70000     -4.125401124960    -12.018798904600     -7.869710865970
     248   83  2  -0.35000     -4.407977071070    -10.902524560700     -7.729416804090
     249   83  2  -0.35000     -3.842825178840    -13.135073248500     -8.010004927860
     250   84  1   0.70000    -20.462637021400     -6.630103763420     13.853144522900
     251   84  2  -0.35000    -19.578331224200     -6.543328530680     14.598847758900
     252   84  2  -0.35000    -21.346942818459     -6.716878996170     13.107441287000
     253   85  1   0.70000     19.297457259100    -14.621420736000     18.355241747000
     254   85  2  -0.35000     19.221559527600    -15.224568791800     17.367288328500
     255   85  2  -0.35000     19.373354990600    -14.018272680300     19.343195165500
     256   86  1   0.70000      8.571128972660     12.499686847400      5.562254394070
     257   86  2  -0.35000      7.765132967400     11.810108926100      5.092730454470
     258   86  2  -0.35000      9.377124977910     13.189264768800      6.031778333670
     259   87  1   0.70000     13.762703901800      3.893637462980    -20.689163563600
     260   87  2  -0.35000     13.346248963600      3.854833822690    -21.771133785859
     261   87  2  -0.35000     14.179158840000      3.932441103270    -19.607193341200
     262   88  1   0.70000    -13.005328492300      6.389723770170      8.597471945840
     263   88  2  -0.35000    -13.976623020700      5.934217451550      8.156222659260
     264   88  2  -0.35000    -12.034033964000      6.845230088790      9.038721232420
     265   89  1   0.70000      9.969532087770      6.723014857110    -20.582898971600
     266   89  2  -0.35000      9.649695983060      5.648623046390    -20.284591909800
     267   89  2  -0.35000     10.289368192500      7.797406667830    -20.881206033559
     268   90  1   0.70000      8.390143451380    -18.451308996700     14.537341221000
     269   90  2  -0.35000      9.296854378680    -19.018106848500     14.087657454800
     270   90  2  -0.35000      7.483432524070    -17.884511145000     14.987024987200
     271   91  1   0.70000    -10.710807858400     -3.598451912450     -4.081467154090
     272   91  2  -0.35000    -11.510201347500     -3.488289236260     -4.914794361280
     273   91  2  -0.35000     -9.911414369190     -3.708614588640     -3.248139946900
     274   92  1   0.70000    -14.137204250300      6.379872891320    -11.246986519500
     275   92  2  -0.35000    -13.094254907000      6.793022284600    -10.951750603200
     276   92  2  -0.35000    -15.180153593500      5.966723498030    -11.542222435900
     277   93  1   0.70000     -1.905519020770    -10.434939785200     19.317837219500
     278   93  2  -0.35000     -0.895133478191    -10.029637669900     18.917273553300
     279   93  2  -0.35000     -2.915904563340    -10.840241900500     19.718400885700
     280   94  1   0.70000     -7.625940206840     -8.861583154310     18.397652698200
     281   94  2  -0.35000     -7.691190599080     -8.719777772270     17.248203430100
     282   94  2  -0.35000     -7.560689814600     -9.003388536350     19.547101966300
     283   95  1   0.70000    -20.174814841800      9.361313293790     -4.869460760890
     284   95  2  -0.35000    -19.412255586900      8.501781081600     -5.028544886310
     285   95  2  -0.35000    -20.937374096759     10.220845506000     -4.710376635480
     286   96  1   0.70000      6.470899154800    -19.517491185700    -13.154130914300
     287   96  2  -0.35000      5.917602399120    -18.909568988300    -13.972601012800
     288   96  2  -0.35000      7.024195910480    -20.125413383000    -12.335660815800
     289   97  1   0.70000     -5.278453596570      9.638203027050    -13.945187599800
     290   97  2  -0.35000     -5.902420237030      8.987685422220    -13.215055777900
     291   97  2  -0.35000     -4.654486956110     10.288720631900    -14.675319421700
     292   98  1   0.70000     -4.215771394720     -7.667500122040     -7.725792763950
     293   98  2  -0.35000     -4.629446027770     -7.786937212460     -6.648663208420
     294   98  2  -0.35000     -3.802096761670     -7.548063031630     -8.802922319490
     295   99  1   0.70000     13.283740116500     -0.798261177887      5.861043316400
     296   99  2  -0.35000     12.944151670800     -0.008765302995      5.081956703020
     297   99  2  -0.35000     13.623328562100     -1.587757052780      6.640129929770
     298  100  1   0.70000     19.359662926200    -10.390003383500     -1.065659506830
     299  100  2  -0.35000     19.422202041700    -11.537070647500     -1.226673639290
     300  100  2  -0.35000     19.297123810700     -9.242936119490     -0.904645374371
     301  101  1   0.70000     17.348025535400     10.444644262500      7.001745534710
     302  101  2  -0.35000     17.122039445800     10.112123029000      8.089844756570
     303  101  2  -0.35000     17.574011625000     10.777165496000      5.913646312850
     304  102  1   0.70000    -17.658641802100     15.490940948700     -0.495338388796
     305  102  2  -0.35000    -17.210669821800     16.389700187900     -1.075987107770
     306  102  2  -0.35000    -18.106613782400     14.592181709500      0.085310330175
     307  103  1   0.70000      6.035544496740      1.283315769300      3.270832687170
     308  103  2  -0.35000      5.731167057400      2.021209027820      2.429127326940
     309  103  2  -0.35000      6.339921936090      0.545422510772      4.112538047400
     310  104  1   0.70000     19.621350391400      0.150277530995    -20.525846130000
     311  104  2  -0.35000     19.440249221100     -0.747768777429    -21.237404415759
     312  104  2  -0.35000     19.802451561700      1.048323839420    -19.814287844200
     313  105  1   0.70000    -13.866945443000     -3.865313182530    -17.847457442600
     314  105  2  -0.35000    -13.934645389800     -3.422810854830    -18.917601548400
     315  105  2  -0.35000    -13.799245496300     -4.307815510240    -16.777313336800
     316  106  1   0.70000     -6.303903466280    -15.213194146900     18.979878607200
     317  106  2  -0.35000     -5.768197404630    -16.225570457900     19.163490209300
     318  106  2  -0.35000     -6.839609527930    -14.200817835900     18.796267005100
     319  107  1   0.70000     18.621667933600     -1.635076876860     -3.480052786640
     320  107  2  -0.35000     18.829698443700     -1.093714997770     -2.475438122830
     321  107  2  -0.35000     18.413637423500     -2.176438755950     -4.484667450440
     322  108  1   0.70000     19.505098866800    -13.696898294600     11.157865912200
     323  108  2  -0.35000     18.988719013400    -12.660538825000     11.087788121200
     324  108  2  -0.35000     20.021478720300    -14.733257764200     11.227943703200
     325  109  1   0.70000      2.103554788510    -18.067433147200    -14.245487804600
     326  109  2  -0.35000      2.487377691250    -19.002342371500    -14.814895147200
     327  109  2  -0.35000      1.719731885760    -17.132523923000    -13.676080462100
     328  110  1   0.70000      8.203510210790     14.258579052400     -1.234449957980
     329  110  2  -0.35000      8.888450191400     13.401028817000     -0.858863993436
     330  110  2  -0.35000      7.518570230180     15.116129287800     -1.610035922530
     331  111  1   0.70000      8.613428094210    -13.309974327900      8.369634373980
     332  111  2  -0.35000      9.250461736970    -12.532414150700      7.790679877700
     333  111  2  -0.35000      7.976394451440    -14.087534505100      8.948588870250
     334  112  1   0.70000      6.835513996940     -3.841322048100    -20.641236287800
     335  112  2  -0.35000      7.233603759950     -2.932562405650    -20.040170190900
     336  112  2  -0.35000      6.437424233930     -4.750081690560    -21.242302384659
     337  113  1   0.70000     17.160070098900      6.399002134640     10.859926846100
     338  113  2  -0.35000     17.915309480100      6.512807966080      9.986850841450
     339  113  2  -0.35000     16.404830717800      6.285196303200     11.733002850800
     340  114  1   0.70000     -0.722035704951    -16.135244221700    -13.225974000500