LAMMPS Atom File

         3000 atoms
         2000 bonds
         1000 angles
           0 dihedrals
           0 impropers

           2 atom types
           1 bond types
           1 angle types

         0.0  45.6110780168 xlo xhi
         0.0  45.6110780168 ylo yhi
         0.0  45.6110780168 zlo zhi

Masses

         1   12.01070
         2   15.99990

Atoms

       1    1  1   0.70000    -13.278557140600     14.540330995100    -20.521434086900
       2    1  2  -0.35000    -13.946605502600     15.398166772400    -20.117170354700
       3    1  2  -0.35000    -12.610508778600     13.682495217800    -20.925697819100
       4    2  1   0.70000     20.354567323700      7.750890331350    -20.583990760500
       5    2  2  -0.35000     19.598516727300      6.966478067590    -20.982343488800
       6    2  2  -0.35000     21.110617920100      8.535302595110    -20.185638032200
       7    3  1   0.70000      2.968803921700     17.667516972900     -0.201353340456
       8    3  2  -0.35000      2.353216492780     18.595904917800      0.122294525321
       9    3  2  -0.35000      3.584391350610     16.739129027900     -0.525001206233
      10    4  1   0.70000     -3.215290329660     12.165674238300    -20.902038617800
      11    4  2  -0.35000     -2.350562162860     12.726053005400    -20.369290239100
      12    4  2  -0.35000     -4.080018496460     11.605295471300    -21.434786996500
      13    5  1   0.70000    -18.633987474500     12.877712507100     -8.076980856480
      14    5  2  -0.35000    -18.049236490100     12.827772505300     -7.076394886920
      15    5  2  -0.35000    -19.218738458900     12.927652508800     -9.077566826050
      16    6  1   0.70000      8.713650928140      1.434055357600     -8.279588582860
      17    6  2  -0.35000      8.638067358690      0.413953674926     -7.732523978770
      18    6  2  -0.35000      8.789234497580      2.454157040270     -8.826653186940
      19    7  1   0.70000      2.014233374380    -15.933891365500     20.879617130100
      20    7  2  -0.35000      2.413158452450    -16.077425269400     21.959365619600
      21    7  2  -0.35000      1.615308296320    -15.790357461500     19.799868640600
      22    8  1   0.70000     -4.631901994030     22.092382450100    -12.179441362100
      23    8  2  -0.35000     -5.010009786640     23.130079784678    -12.534150734500
      24    8  2  -0.35000     -4.253794201420     21.054685115400    -11.824731989800
      25    9  1   0.70000     -4.345201799820      4.633276431050      8.774208166800
      26    9  2  -0.35000     -3.834949473970      3.713436325850      8.285192068060
      27    9  2  -0.35000     -4.855454125670      5.553116536260      9.263224265540
      28   10  1   0.70000      8.911960707330    -14.300347421200     21.112244126500
      29   10  2  -0.35000      7.882856557850    -13.897340660300     20.759922965800
      30   10  2  -0.35000      9.941064856820    -14.703354182000     21.464565287100
      31   11  1   0.70000    -10.261536404900     19.178196502600      2.394422245090
      32   11  2  -0.35000    -10.677867466600     18.892087022900      3.438649142240
      33   11  2  -0.35000     -9.845205343260     19.464305982300      1.350195347950
      34   12  1   0.70000    -10.148966160800     14.641962267900      4.392647558160
      35   12  2  -0.35000    -10.919664992300     14.450886653700      3.547003767390
      36   12  2  -0.35000     -9.378267329360     14.833037882000      5.238291348920
      37   13  1   0.70000     14.822732670800     -2.212348175180      3.500382511010
      38   13  2  -0.35000     14.065948984300     -3.052680481980      3.242080234720
      39   13  2  -0.35000     15.579516357400     -1.372015868380      3.758684787300
      40   14  1   0.70000    -17.133615113600     -6.782801260790     16.060983150200
      41   14  2  -0.35000    -17.628859004800     -7.423461213490     16.891578306200
      42   14  2  -0.35000    -16.638371222300     -6.142141308090     15.230387994200
      43   15  1   0.70000     22.361867888800     13.886853550400    -14.569276166000
      44   15  2  -0.35000     23.147538096478     13.327493836500    -15.213821769700
      45   15  2  -0.35000     21.576197681100     14.446213264300    -13.924730562300
      46   16  1   0.70000    -10.370618750000     16.214258175800     19.656062485100
      47   16  2  -0.35000    -11.331869956100     16.629025671900     19.156498632500
      48   16  2  -0.35000     -9.409367543840     15.799490679700     20.155626337700
      49   17  1   0.70000     -0.066347001054     19.090319893500     15.610001083000
      50   17  2  -0.35000     -0.594939646028     18.667562839400     14.667946791100
      51   17  2  -0.35000      0.462245643921     19.513076947500     16.552055374900
      52   18  1   0.70000     -1.863679871500     21.693433649700    -17.727187788800
      53   18  2  -0.35000     -2.711978983950     22.106400337900    -17.052319557000
      54   18  2  -0.35000     -1.015380759060     21.280466961600    -18.402056020600
      55   19  1   0.70000     18.070547247400      2.137956519100    -22.387291637200
      56   19  2  -0.35000     18.989251805200      2.090910256530    -21.680631475200
      57   19  2  -0.35000     17.151842689500      2.185002781680    -23.093951799278
      58   20  1   0.70000    -11.123823931300    -21.513946769900      5.290502737160
      59   20  2  -0.35000    -11.169352815100    -22.483421907000      5.925833422080
      60   20  2  -0.35000    -11.078295047500    -20.544471632700      4.655172052240
      61   21  1   0.70000     -5.623105800330    -18.525137646100    -19.460826858200
      62   21  2  -0.35000     -6.331795697980    -18.428876237100    -20.374113434300
      63   21  2  -0.35000     -4.914415902670    -18.621399055100    -18.547540282100
      64   22  1   0.70000     -1.349237189520      3.434396742200     16.518156502800
      65   22  2  -0.35000     -2.446270745020      3.789759580390     16.643992234400
      66   22  2  -0.35000     -0.252203634010      3.079033904010     16.392320771300
      67   23  1   0.70000     -1.187596830860     -0.775327394529     -1.925015658880
      68   23  2  -0.35000     -1.663865469910     -1.821014082730     -1.765932241840
      69   23  2  -0.35000     -0.711328191808      0.270359293670     -2.084099075930
      70   24  1   0.70000      8.979592922360    -22.157044748300      1.563532530420
      71   24  2  -0.35000      9.868611432590    -21.806063664500      0.906221061393
      72   24  2  -0.35000      8.090574412130    -22.508025832000      2.220843999460
      73   25  1   0.70000    -11.518311464400      8.026930415250    -17.745658843700
      74   25  2  -0.35000    -11.128475209500      8.381384658320    -16.712222883400
      75   25  2  -0.35000    -11.908147719200      7.672476172190    -18.779094803900
      76   26  1   0.70000     17.793956768100    -21.196446784100     16.285651546200
      77   26  2  -0.35000     18.656997268200    -21.325350990500     17.049945207400
      78   26  2  -0.35000     16.930916267900    -21.067542577700     15.521357884900
      79   27  1   0.70000     20.985803205400     -7.949528428900     -3.942674478300
      80   27  2  -0.35000     21.745457908100     -8.772356022560     -4.245130233540
      81   27  2  -0.35000     20.226148502800     -7.126700835230     -3.640218723070
      82   28  1   0.70000     18.260298689200     14.463074937200     19.069941277300
      83   28  2  -0.35000     18.659871616800     15.534697699200     18.876121434500
      84   28  2  -0.35000     17.860725761700     13.391452175200     19.263761120000
      85   29  1   0.70000     -5.099005905330    -10.345424432700    -16.914579758300
      86   29  2  -0.35000     -4.458738896660    -11.110069957200    -16.322148007400
      87   29  2  -0.35000     -5.739272913990     -9.580778908170    -17.507011509200
      88   30  1   0.70000      9.258787697110    -18.797481769100    -17.767010321700
      89   30  2  -0.35000      9.486812511980    -18.578646738600    -18.883126764200
      90   30  2  -0.35000      9.030762882240    -19.016316799600    -16.650893879200
      91   31  1   0.70000    -17.806521066600     -6.547309782890    -16.682751654200
      92   31  2  -0.35000    -18.653883043900     -5.863919803700    -17.083445821700
      93   31  2  -0.35000    -16.959159089400     -7.230699762080    -16.282057486700
      94   32  1   0.70000     10.850920945700    -14.080655034700      3.233335888120
      95   32  2  -0.35000     11.018987870900    -14.950203652400      2.484177219850
      96   32  2  -0.35000     10.682854020500    -13.211106417100      3.982494556390
      97   33  1   0.70000      4.146597069930     22.476772356700    -12.775359586700
      98   33  2  -0.35000      4.480722506910     22.505404247100    -11.664891033700
      99   33  2  -0.35000      3.812471632940     22.448140466200    -13.885828139700
     100   34  1   0.70000      1.600667335580      7.337154893970    -13.068229525300
     101   34  2  -0.35000      0.486469467478      7.358254771120    -12.746176880700
     102   34  2  -0.35000      2.714865203680      7.316055016830    -13.390282169900
     103   35  1   0.70000     14.470681828700    -21.496072899100     12.881240017200
     104   35  2  -0.35000     13.834449075100    -20.805483714300     12.200142035300
     105   35  2  -0.35000     15.106914582400    -22.186662084000     13.562337999100
     106   36  1   0.70000     -3.481380491540    -19.960860533700      7.853175239420
     107   36  2  -0.35000     -3.508099927840    -19.059297651600      8.582606827290
     108   36  2  -0.35000     -3.454661055240    -20.862423415700      7.123743651560
     109   37  1   0.70000     13.226480452600     -7.256667573310    -20.385313048400
     110   37  2  -0.35000     13.790400861600     -6.562052550440    -21.123624461300
     111   37  2  -0.35000     12.662560043500     -7.951282596170    -19.647001635600
     112   38  1   0.70000     -6.368405075660    -13.986989559500     -3.133357993260
     113   38  2  -0.35000     -7.078883948150    -13.075840838500     -3.236449117500
     114   38  2  -0.35000     -5.657926203170    -14.898138280500     -3.030266869020
     115   39  1   0.70000     19.997369587200    -21.737733084800      5.257503349180
     116   39  2  -0.35000     20.748807517700    -21.640080288000      4.379206720500
     117   39  2  -0.35000     19.245931656800    -21.835385881600      6.135799977860
     118   40  1   0.70000     15.662601308200     18.258500557900     -4.909904609650
     119   40  2  -0.35000     15.131992701900     17.983103023700     -3.915816733750
     120   40  2  -0.35000     16.193209914500     18.533898092200     -5.903992485540
     121   41  1   0.70000    -16.713754448400    -11.665870573800    -14.646476264600
     122   41  2  -0.35000    -16.550479074300    -11.090875467600    -15.640620006700
     123   41  2  -0.35000    -16.877029822400    -12.240865680000    -13.652332522400
     124   42  1   0.70000    -15.131632928000    -22.785464338900      4.525351768640
     125   42  2  -0.35000    -16.067560019800    -23.419729295978      4.265835982750
     126   42  2  -0.35000    -14.195705836300    -22.151199381800      4.784867554530
     127   43  1   0.70000     13.339033147800     -8.414675986070    -11.324694998300
     128   43  2  -0.35000     12.420215301700     -8.634605764520    -10.651638791000
     129   43  2  -0.35000     14.257850993900     -8.194746207630    -11.997751205700
     130   44  1   0.70000     18.489550277200      5.980933038000     -9.115614823350
     131   44  2  -0.35000     19.293576391300      5.826488280040     -9.937374413850
     132   44  2  -0.35000     17.685524163100      6.135377795960     -8.293855232850
     133   45  1   0.70000     -2.322192682300     -3.479325199170      4.254756202700
     134   45  2  -0.35000     -1.246271424980     -3.341196745990      4.665747660600
     135   45  2  -0.35000     -3.398113939620     -3.617453652350      3.843764744800
     136   46  1   0.70000      7.836826229180     -7.800520568960      8.425295194230
     137   46  2  -0.35000      8.585860220930     -7.205329789270      7.769325671330
     138   46  2  -0.35000      7.087792237420     -8.395711348650      9.081264717120
     139   47  1   0.70000     16.586137216300     10.582687049000    -20.357652521900
     140   47  2  -0.35000     16.971174871900     11.001919996500    -19.346915296100
     141   47  2  -0.35000     16.201099560800     10.163454101500    -21.368389747700
     142   48  1   0.70000      6.316439969480    -16.706461156200     19.729425656800
     143   48  2  -0.35000      5.304495518960    -16.175657213500     19.928964133200
     144   48  2  -0.35000      7.328384419990    -17.237265098800     19.529887180500
     145   49  1   0.70000      2.404594208550      4.307196723720    -21.610296904600
     146   49  2  -0.35000      1.370527208250      3.798948640160    -21.744421191900
     147   49  2  -0.35000      3.438661208860      4.815444807270    -21.476172617300
     148   50  1   0.70000    -14.413031109600      8.907001684860     13.175778965500
     149   50  2  -0.35000    -14.565240139200      8.135673981370     14.028706855300
     150   50  2  -0.35000    -14.260822080000      9.678329388350     12.322851075700
     151   51  1   0.70000     -0.239639631726     22.503338394800    -11.144498075200
     152   51  2  -0.35000      0.502760532517     23.379003580478    -11.310788419700
     153   51  2  -0.35000     -0.982039795968     21.627673209100    -10.978207730700
     154   52  1   0.70000    -16.662509609900      4.808419176770     -3.081322805240
     155   52  2  -0.35000    -15.849022994100      4.282241907880     -2.443375309230
     156   52  2  -0.35000    -17.475996225700      5.334596445660     -3.719270301260
     157   53  1   0.70000    -17.206063874600    -21.373964137900     -4.984606209260
     158   53  2  -0.35000    -17.495664384300    -20.486576468900     -5.673282235930
     159   53  2  -0.35000    -16.916463365000    -22.261351806900     -4.295930182600
     160   54  1   0.70000      0.102366847241    -21.580883302300     22.782600563800
     161   54  2  -0.35000      0.599419527864    -22.001801283700     21.822722089400
     162   54  2  -0.35000     -0.394685833382    -21.159965321000     23.742479038178
     163   55  1   0.70000     17.516372043000    -11.623181398100      6.149003989380
     164   55  2  -0.35000     18.472769051200    -11.419258341800      6.772959235980
     165   55  2  -0.35000     16.559975034700    -11.827104454300      5.525048742770
     166   56  1   0.70000     19.780919249900      8.072581879940    -13.023140471200
     167   56  2  -0.35000     19.133989026200      7.451548955890    -12.287341998200
     168   56  2  -0.35000     20.427849473700      8.693614803980    -13.758938944200
     169   57  1   0.70000     -7.738631553730     10.223415407300    -16.887435715300
     170   57  2  -0.35000     -7.665311446280      9.379827148640    -17.680267987400
     171   57  2  -0.35000     -7.811951661190     11.067003665900    -16.094603443200
     172   58  1   0.70000      4.624308983960     -6.804550048240     -0.942728803492
     173   58  2  -0.35000      5.239196391310     -7.246088216890     -1.821681317510
     174   58  2  -0.35000      4.009421576620     -6.363011879580     -0.063776289469
     175   59  1   0.70000    -10.212766269900     13.675826383800     22.274297071600
     176   59  2  -0.35000    -11.216685837600     13.272955587100     21.855440744600
     177   59  2  -0.35000     -9.208846702160     14.078697180500     22.693153398600
     178   60  1   0.70000    -16.871512494300      2.800090613630    -10.941412319500
     179   60  2  -0.35000    -16.480398518600      1.993937220660    -11.678125672900
     180   60  2  -0.35000    -17.262626469900      3.606244006590    -10.204698966100
     181   61  1   0.70000     -7.228560960520      9.511549407860     20.472754924300
     182   61  2  -0.35000     -7.257221022270      9.765718768920     21.604203790500
     183   61  2  -0.35000     -7.199900898770      9.257380046800     19.341306058200
     184   62  1   0.70000    -19.916229026200    -20.703037548600    -17.563302344200
     185   62  2  -0.35000    -20.956120696700    -20.945561154100    -17.110083176000
     186   62  2  -0.35000    -18.876337355700    -20.460513943200    -18.016521512400
     187   63  1   0.70000    -15.586929347600     10.769500416500      3.502249595920
     188   63  2  -0.35000    -15.267173551000      9.887760251520      4.184811323560
     189   63  2  -0.35000    -15.906685144200     11.651240581500      2.819687868270
     190   64  1   0.70000     -2.644384763020     -7.083929114040    -18.504614625300
     191   64  2  -0.35000     -2.330204680240     -8.188158474620    -18.338577295700
     192   64  2  -0.35000     -2.958564845790     -5.979699753450    -18.670651954900
     193   65  1   0.70000     11.435939396000     11.724149281500    -15.296938893200
     194   65  2  -0.35000     10.355699221000     11.801921011200    -14.881447951800
     195   65  2  -0.35000     12.516179571000     11.646377551800    -15.712429834600
     196   66  1   0.70000    -22.238124254900     10.726206997200     -4.550537960820
     197   66  2  -0.35000    -23.159511173778     11.419220782000     -4.422561244450
     198   66  2  -0.35000    -21.316737336100     10.033193212400     -4.678514677190
     199   67  1   0.70000    -20.181586018600    -17.908196330400     -8.715190392770
     200   67  2  -0.35000    -20.119911370000    -17.186882822100     -7.808822332610
     201   67  2  -0.35000    -20.243260667100    -18.629509838700     -9.621558452940
     202   68  1   0.70000     -4.570981800780     10.593356997700      7.227010310490
     203   68  2  -0.35000     -5.043693871140      9.822922275130      7.954041009130
     204   68  2  -0.35000     -4.098269730430     11.363791720300      6.499979611840
     205   69  1   0.70000     21.191417508400    -20.560451532800    -19.051868345300
     206   69  2  -0.35000     21.035397315800    -21.119984938300    -18.047786641700
     207   69  2  -0.35000     21.347437701100    -20.000918127400    -20.055950049000
     208   70  1   0.70000      4.336696957570    -17.304670532800      0.599514758647
     209   70  2  -0.35000      4.692414947660    -16.590686778800     -0.242679940123
     210   70  2  -0.35000      3.980978967490    -18.018654286700      1.441709457420
     211   71  1   0.70000    -11.300147778700    -10.797276785200      3.051065330060
     212   71  2  -0.35000    -10.856250381000    -10.322982583100      4.012106489520
     213   71  2  -0.35000    -11.744045176300    -11.271570987400      2.090024170600
     214   72  1   0.70000     -7.211337665530    -12.318427148100      5.369211262460
     215   72  2  -0.35000     -7.425393868120    -11.727484514400      6.344181388080
     216   72  2  -0.35000     -6.997281462950    -12.909369781800      4.394241136840
     217   73  1   0.70000    -17.214606919600     -6.028003762540      8.969148193700
     218   73  2  -0.35000    -16.406603058300     -6.270094363580      9.765465907400
     219   73  2  -0.35000    -18.022610780800     -5.785913161510      8.172830480000
     220   74  1   0.70000    -16.388160801300     -4.150612211230     -3.612973403070
     221   74  2  -0.35000    -15.285188685600     -3.806003112000     -3.511498870640
     222   74  2  -0.35000    -17.491132917000     -4.495221310460     -3.714447935490
     223   75  1   0.70000    -20.919132261300      5.796136483050     16.815961632000
     224   75  2  -0.35000    -21.040929894400      6.746990008780     16.162782553100
     225   75  2  -0.35000    -20.797334628100      4.845282957310     17.469140710900
     226   76  1   0.70000    -10.092206996800    -16.834226805000      8.930523924100
     227   76  2  -0.35000     -9.915789657260    -16.884753652100      7.785131432400
     228   76  2  -0.35000    -10.268624336300    -16.783699957900     10.075916415800
     229   77  1   0.70000     -4.596179462060      8.187870313420    -10.065781872900
     230   77  2  -0.35000     -5.566006817420      7.618591216510    -10.350309921800
     231   77  2  -0.35000     -3.626352106700      8.757149410330     -9.781253824020
     232   78  1   0.70000     -5.300203954450    -15.527563346900      7.199862417620
     233   78  2  -0.35000     -4.922043231880    -15.564131568700      8.295881228170
     234   78  2  -0.35000     -5.678364677020    -15.490995125200      6.103843607080
     235   79  1   0.70000    -21.247088205700     -6.394571139830    -20.648904223500
     236   79  2  -0.35000    -21.953683032500     -7.145144787010    -21.180846843400
     237   79  2  -0.35000    -20.540493378900     -5.643997492650    -20.116961603600
     238   80  1   0.70000     18.334283203200      8.449712744490    -17.033933042000
     239   80  2  -0.35000     17.563017195900      8.656941737440    -16.192621631000
     240   80  2  -0.35000     19.105549210600      8.242483751540    -17.875244453100
     241   81  1   0.70000      9.591837625490    -14.662211574500     -1.097982659940
     242   81  2  -0.35000     10.047656952400    -15.702692270600     -0.862974868423
     243   81  2  -0.35000      9.136018298540    -13.621730878300     -1.332990451460
     244   82  1   0.70000     20.369363806500     17.752458406200      7.333675624560
     245   82  2  -0.35000     21.497804808200     17.992387552400      7.212618156950
     246   82  2  -0.35000     19.240922804800     17.512529260000      7.454733092170
     247   83  1   0.70000     16.389824333500     14.036826892100     14.067540494100
     248   83  2  -0.35000     16.286243767600     13.639281656500     12.982723066100
     249   83  2  -0.35000     16.493404899400     14.434372127700     15.152357922100
     250   84  1   0.70000    -12.023349642800     12.578586153500    -15.954093721900
     251   84  2  -0.35000    -12.083444463000     13.348591196100    -15.088599154100
     252   84  2  -0.35000    -11.963254822500     11.808581110900    -16.819588289700
     253   85  1   0.70000     -8.686274810600     -7.993918792080     -7.191159975810
     254   85  2  -0.35000     -8.035126149100     -8.647839166220     -7.894006733580
     255   85  2  -0.35000     -9.337423472110     -7.339998417950     -6.488313218030
     256   86  1   0.70000    -20.550008142900     -6.651743162630     15.821732536100
     257   86  2  -0.35000    -21.041793149700     -6.004166121240     16.649012103400
     258   86  2  -0.35000    -20.058223136100     -7.299320204030     14.994452968700
     259   87  1   0.70000     20.808217907600    -16.855609995900     16.397396450700
     260   87  2  -0.35000     21.232587706700    -17.452759522600     15.497995140800
     261   87  2  -0.35000     20.383848108400    -16.258460469200     17.296797760600
     262   88  1   0.70000      8.615572610080     11.686484054500      7.505370222340
     263   88  2  -0.35000      9.289612086730     12.546377069900      7.115684726120
     264   88  2  -0.35000      7.941533133440     10.826591039100      7.895055718560
     265   89  1   0.70000     15.763306710100      2.876481399050     17.583553583000
     266   89  2  -0.35000     16.511986055600      2.425635452610     18.346322991300
     267   89  2  -0.35000     15.014627364600      3.327327345490     16.820784174700
     268   90  1   0.70000    -11.179251319100      8.376957677550     12.245624600600
     269   90  2  -0.35000    -11.925930803200      8.415256266000     13.132531002700
     270   90  2  -0.35000    -10.432571835000      8.338659089100     11.358718198400
     271   91  1   0.70000      8.398707046020      7.196514333030     22.396933492100
     272   91  2  -0.35000      7.579889903870      7.891715354580     22.834922107678
     273   91  2  -0.35000      9.217524188180      6.501313311470     21.958944876600
     274   92  1   0.70000      6.660245907920     19.725472562600     17.001359991100
     275   92  2  -0.35000      5.582435619040     19.624562646000     17.418183898700
     276   92  2  -0.35000      7.738056196800     19.826382479200     16.584536083600
     277   93  1   0.70000    -12.033339479200     -2.323472608630     -8.272212619550
     278   93  2  -0.35000    -11.155994404900     -2.243057283830     -9.026797933550
     279   93  2  -0.35000    -12.910684553500     -2.403887933430     -7.517627305550
     280   94  1   0.70000    -15.489626958300      5.938804842670     -7.692622998870
     281   94  2  -0.35000    -15.010173800500      5.303253184160     -8.536304668040
     282   94  2  -0.35000    -15.969080116000      6.574356501170     -6.848941329700
     283   95  1   0.70000      0.863989974150    -11.893845653700     19.936823880400
     284   95  2  -0.35000      1.069612803320    -11.087143705800     19.129017455900
     285   95  2  -0.35000      0.658367144977    -12.700547601600     20.744630304900
     286   96  1   0.70000    -12.026380724800    -15.113500266700     17.051894279000
     287   96  2  -0.35000    -12.375045956800    -15.663635795700     16.092007069100
     288   96  2  -0.35000    -11.677715492800    -14.563364737600     18.011781488900
     289   97  1   0.70000    -20.872689557900     13.420421638500     -1.018409931090
     290   97  2  -0.35000    -19.794884932100     13.620025460100     -1.398009065520
     291   97  2  -0.35000    -21.950494183800     13.220817816900     -0.638810796664
     292   98  1   0.70000      8.300018861110    -20.210083565800    -13.937071386900
     293   98  2  -0.35000      8.922401172630    -19.329769461400    -13.508950684400
     294   98  2  -0.35000      7.677636549580    -21.090397670200    -14.365192089300
     295   99  1   0.70000     -9.623756169300      5.175536987310    -16.387755476900
     296   99  2  -0.35000    -10.091401573500      4.119066682270    -16.283937027200
     297   99  2  -0.35000     -9.156110765080      6.232007292350    -16.491573926600
     298  100  1   0.70000     -8.318023894100     13.167957241800     -5.285120456150
     299  100  2  -0.35000     -7.703656289890     13.576965414900     -6.180030932840
     300  100  2  -0.35000     -8.932391498300     12.758949068800     -4.390209979460
     301  101  1   0.70000    -10.952445795000      4.813918627310      5.199903647870
     302  101  2  -0.35000     -9.883898414170      5.261142048990      5.138278117410
     303  101  2  -0.35000    -12.020993175800      4.366695205630      5.261529178330
     304  102  1   0.70000      9.059834741450    -14.910187969900    -12.027114492100
     305  102  2  -0.35000      8.264672271060    -15.346064056100    -12.750529091900
     306  102  2  -0.35000      9.854997211850    -14.474311883700    -11.303699892400
     307  103  1   0.70000     -8.322060429690    -18.629520567800     16.018897206300
     308  103  2  -0.35000     -7.456600338530    -19.239658569800     16.492511447200
     309  103  2  -0.35000     -9.187520520860    -18.019382565900     15.545282965500
     310  104  1   0.70000     -8.007822673880     21.484533629800     -4.791739896500
     311  104  2  -0.35000     -7.547030332530     20.658541763400     -5.463311080120
     312  104  2  -0.35000     -8.468615015230     22.310525496300     -4.120168712890
     313  105  1   0.70000      0.489262374493      0.505694404069    -12.285639222200
     314  105  2  -0.35000      0.125796267528     -0.251375125393    -11.485427927200
     315  105  2  -0.35000      0.852728481458      1.262763933530    -13.085850517200
     316  106  1   0.70000     -5.566814890460    -21.916274710100      1.222222038540
     317  106  2  -0.35000     -5.122476350890    -22.858819657278      1.731900647810
     318  106  2  -0.35000     -6.011153430030    -20.973729762900      0.712543429268
     319  107  1   0.70000      3.956083267490    -21.672593914200      6.105813593450
     320  107  2  -0.35000      3.571465881950    -21.458280317400      7.179004698980
     321  107  2  -0.35000      4.340700653030    -21.886907511000      5.032622487930
     322  108  1   0.70000    -13.775454540000     16.686549033600      5.407948813490
     323  108  2  -0.35000    -13.925601585600     17.331477976100      4.455519013480
     324  108  2  -0.35000    -13.625307494500     16.041620091200      6.360378613500
     325  109  1   0.70000     -0.121629351946     17.589654231000     -4.122150225440
     326  109  2  -0.35000      0.864282262246     17.220338680300     -3.635134503840
     327  109  2  -0.35000     -1.107540966140     17.958969781600     -4.609165947040
     328  110  1   0.70000     -7.623856672940     15.588927730000      1.863957952420
     329  110  2  -0.35000     -8.754067061530     15.755093681400      1.662430400630
     330  110  2  -0.35000     -6.493646284350     15.422761778600      2.065485504220
     331  111  1   0.70000     -5.891104636030      0.514500019588      1.722410926630
     332  111  2  -0.35000     -6.729201253800     -0.286762982471      1.688181395180
     333  111  2  -0.35000     -5.053008018270      1.315763021650      1.756640458080
     334  112  1   0.70000     12.332743195800     19.854913908200      9.236417545160
     335  112  2  -0.35000     12.733580789500     19.017469022700      9.931842082610
     336  112  2  -0.35000     11.931905602200     20.692358793700      8.540993007710
     337  113  1   0.70000     -9.075278222680     -4.728690160660      8.708280808250
     338  113  2  -0.35000     -9.425683943980     -4.221814405850      7.725482355030
     339  113  2  -0.35000     -8.724872501370     -5.235565915480      9.691079261470
     340  114  1   0.70000     10.564978693200     -8.817344264580     22.435920573500