LAMMPS Atom File

         3000 atoms
         2000 bonds
         1000 angles
           0 dihedrals
           0 impropers

           2 atom types
           1 bond types
           1 angle types

         0.0  149.196860672 xlo xhi
         0.0  149.196860672 ylo yhi
         0.0  149.196860672 zlo zhi

Masses

         1   12.01070
         2   15.99990

Atoms

       1    1  1   0.70000    -44.619073530700     57.544555368600    -63.148698518100
       2    1  2  -0.35000    -43.578645160900     57.562039133500    -63.661341790800
       3    1  2  -0.35000    -45.659501900600     57.527071603700    -62.636055245300
       4    2  1   0.70000     67.915138077200     32.766476397100    -65.272500003600
       5    2  2  -0.35000     68.128991452400     31.630769620600    -65.372684092600
       6    2  2  -0.35000     67.701284702000     33.902183173600    -65.172315914700
       7    3  1   0.70000     14.831336255100     55.479117780600      1.795324540820
       8    3  2  -0.35000     13.958377727900     54.802662636100      1.440427587760
       9    3  2  -0.35000     15.704294782400     56.155572925000      2.150221493880
      10    4  1   0.70000    -19.329199694900     32.732909467000    -72.717241516900
      11    4  2  -0.35000    -20.338419914900     32.873007035100    -72.162762284800
      12    4  2  -0.35000    -18.319979474800     32.592811898900    -73.271720749000
      13    5  1   0.70000    -63.023913762200     45.592306140000    -32.629847450500
      14    5  2  -0.35000    -62.621296073500     44.806100734900    -33.381765037500
      15    5  2  -0.35000    -63.426531451000     46.378511545100    -31.877929863400
      16    6  1   0.70000     37.559039141500     -0.779686269398    -16.219387713700
      17    6  2  -0.35000     37.853276501000     -1.807523852440    -16.669470238500
      18    6  2  -0.35000     37.264801782000      0.248151313642    -15.769305188800
      19    7  1   0.70000      6.946654261450    -59.341051375300     66.003835330500
      20    7  2  -0.35000      7.115383569210    -60.209207795100     66.754458306100
      21    7  2  -0.35000      6.777924953680    -58.472894955600     65.253212354800
      22    8  1   0.70000    -23.285124680100    -73.298704672600    -30.987282577700
      23    8  2  -0.35000    -23.568870916500    -73.996164140600    -30.104877702400
      24    8  2  -0.35000    -23.001378443800    -72.601245204700    -31.869687453000
      25    9  1   0.70000    -16.661760889700      7.481492636080     38.502800634400
      26    9  2  -0.35000    -17.366675698500      7.037592138940     37.695553794300
      27    9  2  -0.35000    -15.956846080800      7.925393133220     39.310047474500
      28   10  1   0.70000     39.722908736000    -43.408158535000    -72.522718614500
      29   10  2  -0.35000     38.693804586500    -43.005151774100    -72.875039775100
      30   10  2  -0.35000     40.752012885400    -43.811165295800    -72.170397453800
      31   11  1   0.70000    -39.992960971200     72.414096230400     13.226037802400
      32   11  2  -0.35000    -39.847649149700     71.268859397600     13.339691096400
      33   11  2  -0.35000    -40.138272792700     73.559333063300     13.112384508400
      34   12  1   0.70000    -36.240419482800     52.353500353400      9.535934915160
      35   12  2  -0.35000    -36.621058857300     51.373886453900      9.044945837340
      36   12  2  -0.35000    -35.859780108300     53.333114252800     10.026923993000
      37   13  1   0.70000     42.203878383300     -1.197342982570     16.142656875000
      38   13  2  -0.35000     41.070451903000     -1.329107516330     16.351421147400
      39   13  2  -0.35000     43.337304863600     -1.065578448810     15.933892602700
      40   14  1   0.70000    -70.936367079000    -30.140626892100     56.359858267400
      41   14  2  -0.35000    -71.475138397300    -31.152828161500     56.535283626500
      42   14  2  -0.35000    -70.397595760600    -29.128425622600     56.184432908200
      43   15  1   0.70000     68.364123731700     43.017456728800    -49.381799372700
      44   15  2  -0.35000     67.815115598300     41.998339537300    -49.307031603200
      45   15  2  -0.35000     68.913131865100     44.036573920400    -49.456567142100
      46   16  1   0.70000    -36.464311127000     44.211465191200     60.872374082600
      47   16  2  -0.35000    -35.577832655200     44.650106134800     60.266279996100
      48   16  2  -0.35000    -37.350789598800     43.772824247700     61.478468169100
      49   17  1   0.70000     -4.107014055770     52.699348424800     42.640350733800
      50   17  2  -0.35000     -3.491767439120     51.720409436800     42.546808987200
      51   17  2  -0.35000     -4.722260672430     53.678287412900     42.733892480400
      52   18  1   0.70000      6.552229359490     70.398093067500    -60.163287548000
      53   18  2  -0.35000      7.104286019320     71.251260324300    -60.722697126300
      54   18  2  -0.35000      6.000172699660     69.544925810700    -59.603877969800
      55   19  1   0.70000     68.931628740300     15.709932375400     63.379234780200
      56   19  2  -0.35000     68.190343221100     15.777082117100     64.268946357700
      57   19  2  -0.35000     69.672914259600     15.642782633600     62.489523202700
      58   20  1   0.70000    -45.136612500200     62.116108677100    -59.744046818300
      59   20  2  -0.35000    -44.240759552200     61.798764362900    -59.078960296200
      60   20  2  -0.35000    -46.032465448100     62.433452991400    -60.409133340400
      61   21  1   0.70000    -34.673306712600    -64.460307066600     15.312736820100
      62   21  2  -0.35000    -34.106864964500    -65.043884040400     14.485584076300
      63   21  2  -0.35000    -35.239748460700    -63.876730092700     16.139889563900
      64   22  1   0.70000     -5.724312532550    -65.470657251400    -67.592760725200
      65   22  2  -0.35000     -6.433795682280    -66.177041119800    -68.178640824400
      66   22  2  -0.35000     -5.014829382820    -64.764273383000    -67.006880625900
      67   23  1   0.70000      1.580450345200     19.938779912600     49.235987627900
      68   23  2  -0.35000      2.153854099300     19.230449705300     48.518299358400
      69   23  2  -0.35000      1.007046591100     20.647110119900     49.953675897400
      70   24  1   0.70000     -1.145795343350    -15.804680854000    -11.454171874900
      71   24  2  -0.35000     -1.331922660450    -14.855472604200    -10.813890436500
      72   24  2  -0.35000     -0.959668026245    -16.753889103700    -12.094453313400
      73   25  1   0.70000     15.021765099600     58.016161104900      7.811538397470
      74   25  2  -0.35000     15.817322750200     58.173851948300      6.982188276840
      75   25  2  -0.35000     14.226207449100     57.858470261600      8.640888518090
      76   26  1   0.70000    -34.675204671100     34.661347927900    -55.634012443000
      77   26  2  -0.35000    -34.920927462800     34.421798180300    -54.525934725500
      78   26  2  -0.35000    -34.429481879400     34.900897675600    -56.742090160500
      79   27  1   0.70000    -72.287914495700    -58.733052987900     57.908401450200
      80   27  2  -0.35000    -72.579211061600    -57.957836911400     58.720673784700
      81   27  2  -0.35000    -71.996617929700    -59.508269064400     57.096129115700
      82   28  1   0.70000     -9.582302508920      0.546268154233     36.001392435400
      83   28  2  -0.35000    -10.242996896700     -0.179393342943     36.619856919000
      84   28  2  -0.35000     -8.921608121140      1.271929651410     35.382927951800
      85   29  1   0.70000     57.459953622100    -27.590488281600      2.367074913030
      86   29  2  -0.35000     57.605503424000    -28.353073495500      3.228979227170
      87   29  2  -0.35000     57.314403820200    -26.827903067700      1.505170598890
      88   30  1   0.70000     65.331417206800     52.602193233100     66.941053395000
      89   30  2  -0.35000     64.673439106100     51.978810558300     66.217134297500
      90   30  2  -0.35000     65.989395307500     53.225575907800     67.664972492600
      91   31  1   0.70000    -15.018654131100    -34.215909722500    -64.997153605100
      92   31  2  -0.35000    -15.206170785500    -34.905354486400    -65.910993537400
      93   31  2  -0.35000    -14.831137476700    -33.526464958700    -64.083313672800
      94   32  1   0.70000     31.664999689700    -57.793217665300    -60.472001579000
      95   32  2  -0.35000     31.502750861900    -57.862114264500    -59.325472653800
      96   32  2  -0.35000     31.827248517500    -57.724321066200    -61.618530504300
      97   33  1   0.70000    -67.196279628200    -23.671124120400    -53.392145405200
      98   33  2  -0.35000    -67.467224123600    -24.799037622900    -53.391685644500
      99   33  2  -0.35000    -66.925335132800    -22.543210618000    -53.392605165800
     100   34  1   0.70000     48.214221587800    -63.983298047600      6.214478502990
     101   34  2  -0.35000     47.672818180400    -64.107774181700      7.232804601320
     102   34  2  -0.35000     48.755624995100    -63.858821913500      5.196152404660
     103   35  1   0.70000     25.167018914700    -72.753824272400    -42.532842215000
     104   35  2  -0.35000     25.824300797600    -72.569634458500    -41.594943159200
     105   35  2  -0.35000     24.509737031800    -72.938014086300    -43.470741270800
     106   36  1   0.70000     13.907175606700     34.567045249900    -42.548027712000
     107   36  2  -0.35000     13.058448032700     34.970048690700    -41.867697107100
     108   36  2  -0.35000     14.755903180600     34.164041809100    -43.228358316900
     109   37  1   0.70000     55.362998698800    -72.107508988400     43.135021499000
     110   37  2  -0.35000     56.438999842300    -72.298635771300     43.523984340600
     111   37  2  -0.35000     54.286997555400    -71.916382205500     42.746058657400
     112   38  1   0.70000    -15.538613591700    -68.700120715200     40.764645598800
     113   38  2  -0.35000    -15.476635021100    -69.823021312800     41.048992050700
     114   38  2  -0.35000    -15.600592162300    -67.577220117600     40.480299147000
     115   39  1   0.70000     52.377982923200     -7.729566601120    -63.964800553500
     116   39  2  -0.35000     52.482053502900     -7.589355205790    -62.818018063700
     117   39  2  -0.35000     52.273912343500     -7.869777996450    -65.111583043400
     118   40  1   0.70000    -19.847399345100    -44.518642405100     -8.444515671610
     119   40  2  -0.35000    -20.212429856300    -44.768305673900     -9.516905982120
     120   40  2  -0.35000    -19.482368833900    -44.268979136200     -7.372125361100
     121   41  1   0.70000     55.312108293800    -66.003376564100     21.477559825000
     122   41  2  -0.35000     54.225736205300    -65.728490973100     21.177837291300
     123   41  2  -0.35000     56.398480382300    -66.278262155000     21.777282358600
     124   42  1   0.70000     50.930057510900     52.834985714000    -20.751053114300
     125   42  2  -0.35000     52.026896510200     52.758390068200    -21.120752068600
     126   42  2  -0.35000     49.833218511700     52.911581359800    -20.381354160100
     127   43  1   0.70000    -50.270004022700    -31.227908057300    -41.577669978600
     128   43  2  -0.35000    -49.553015533900    -30.324871019600    -41.704364948400
     129   43  2  -0.35000    -50.986992511600    -32.130945095000    -41.450975008700
     130   44  1   0.70000    -57.818949688000    -67.511778195800      8.735745979960
     131   44  2  -0.35000    -58.167042387300    -66.406738853700      8.678130660050
     132   44  2  -0.35000    -57.470856988700    -68.616817537900      8.793361299860
     133   45  1   0.70000     39.580318384400    -32.381804750200    -33.631213881200
     134   45  2  -0.35000     39.140865098200    -31.351093301500    -33.331022744100
     135   45  2  -0.35000     40.019771670700    -33.412516198900    -33.931405018200
     136   46  1   0.70000     68.936692133800     18.788303872500    -23.292836090500
     137   46  2  -0.35000     68.524717303300     17.786095304000    -22.878765173600
     138   46  2  -0.35000     69.348666964300     19.790512441000    -23.706907007400
     139   47  1   0.70000     -6.973903106930     -0.194479829625      3.153290159920
     140   47  2  -0.35000     -7.710701688550      0.430695873700      2.511508896480
     141   47  2  -0.35000     -6.237104525320     -0.819655532950      3.795071423360
     142   48  1   0.70000     33.906938889500    -21.681941433500     30.179038413500
     143   48  2  -0.35000     33.529768758000    -22.313264337100     29.281946398600
     144   48  2  -0.35000     34.284109020900    -21.050618529800     31.076130428500
     145   49  1   0.70000     54.204232061700     32.758248416500    -59.026755118000
     146   49  2  -0.35000     53.240761032300     32.511843101800    -59.623921758500
     147   49  2  -0.35000     55.167703091000     33.004653731200    -58.429588477500
     148   50  1   0.70000     21.728022922200    -50.532652049800     62.097870946600
     149   50  2  -0.35000     21.231639585300    -50.643560914900     63.140417255600
     150   50  2  -0.35000     22.224406259100    -50.421743184600     61.055324637500
     151   51  1   0.70000      2.698257212260     17.046625036200     70.979826972900
     152   51  2  -0.35000      2.967030370580     17.692631861500     70.054604744900
     153   51  2  -0.35000      2.429484053930     16.400618211000     71.905049200800
     154   52  1   0.70000    -58.113412142200     21.371057157100     42.976176008700
     155   52  2  -0.35000    -56.984805649000     21.236772512500     43.208156649200
     156   52  2  -0.35000    -59.242018635500     21.505341801700     42.744195368200
     157   53  1   0.70000     -6.287095757110     71.288405093500    -34.086055014900
     158   53  2  -0.35000     -5.966576203960     72.319640935500    -34.509634823300
     159   53  2  -0.35000     -6.607615310270     70.257169251400    -33.662475206500
     160   54  1   0.70000    -51.985573385300     17.755252267800    -15.417867239000
     161   54  2  -0.35000    -50.957431389900     17.356306453300    -15.777542473400
     162   54  2  -0.35000    -53.013715380800     18.154198082300    -15.058192004500
     163   55  1   0.70000    -53.779682960800    -70.196320348900    -23.754287817600
     164   55  2  -0.35000    -52.823285952500    -69.992397292600    -23.130332571000
     165   55  2  -0.35000    -54.736079969000    -70.400243405200    -24.378243064200
     166   56  1   0.70000      9.112543271760    -67.894233198400    -70.689943235800
     167   56  2  -0.35000      8.617756631140    -66.888208297700    -70.987768821400
     168   56  2  -0.35000      9.607329912370    -68.900258099100    -70.392117650200
     169   57  1   0.70000     58.994013911600    -31.001784419800     26.773656937000
     170   57  2  -0.35000     59.961149116200    -31.634860761400     26.676374658500
     171   57  2  -0.35000     58.026878707000    -30.368708078200     26.870939215500
     172   58  1   0.70000     54.782262659300     19.709578168300    -55.002978660700
     173   58  2  -0.35000     54.740248315200     19.174494500100    -53.974620618600
     174   58  2  -0.35000     54.824277003400     20.244661836500    -56.031336702900
     175   59  1   0.70000    -24.090950247700     33.674866006800    -58.034768841500
     176   59  2  -0.35000    -24.658992698300     33.104096339800    -58.869723787300
     177   59  2  -0.35000    -23.522907797000     34.245635673800    -57.199813895800
     178   60  1   0.70000      9.400336360450    -31.747757731900     -6.182388242110
     179   60  2  -0.35000      8.648234100130    -32.363729322600     -6.815255676520
     180   60  2  -0.35000     10.152438620800    -31.131786141300     -5.549520807700
     181   61  1   0.70000    -33.203984471500     39.346937290600    -74.108490357800
     182   61  2  -0.35000    -33.632393656000     39.693750543300    -75.129169611167
     183   61  2  -0.35000    -32.775575286900     39.000124038000    -73.087811104400
     184   62  1   0.70000    -36.577297616700      5.571694740740    -34.301594074100
     185   62  2  -0.35000    -36.598060013700      6.606683026500    -34.825013763500
     186   62  2  -0.35000    -36.556535219700      4.536706454990    -33.778174384800
     187   63  1   0.70000    -22.197483114300     27.322794082900    -72.450749679500
     188   63  2  -0.35000    -22.081308177300     26.947795478600    -71.359200582600
     189   63  2  -0.35000    -22.313658051300     27.697792687200    -73.542298776300
     190   64  1   0.70000    -69.519388856300    -70.823232746300    -54.734466875900
     191   64  2  -0.35000    -69.888564431400    -71.133749621600    -55.789402260100
     192   64  2  -0.35000    -69.150213281300    -70.512715870900    -53.679531491700
     193   65  1   0.70000    -49.941603838400     40.488126038700     12.437892929500
     194   65  2  -0.35000    -50.155729974300     39.814975475400     13.358011572400
     195   65  2  -0.35000    -49.727477702400     41.161276602000     11.517774286600
     196   66  1   0.70000     -0.959865624245    -32.345256479900    -67.520192577700
     197   66  2  -0.35000     -0.607324339178    -33.283801460800    -68.103671764300
     198   66  2  -0.35000     -1.312406909310    -31.406711499100    -66.936713391100
     199   67  1   0.70000     35.002898134500     58.251467884400    -51.628745050800
     200   67  2  -0.35000     33.964336003700     57.901160562500    -52.008578541500
     201   67  2  -0.35000     36.041460265200     58.601775206400    -51.248911560000
     202   68  1   0.70000    -59.783030812100     40.081284848600    -36.265982092400
     203   68  2  -0.35000    -58.709720579900     39.773947066000    -35.951103333500
     204   68  2  -0.35000    -60.856341044300     40.388622631300    -36.580860851400
     205   69  1   0.70000    -73.499258320600    -68.138625613100    -29.106251452500
     206   69  2  -0.35000    -73.655278513200    -68.698159018600    -28.102169748900
     207   69  2  -0.35000    -73.343238127900    -67.579092207600    -30.110333156200
     208   70  1   0.70000    -14.320644452100     36.235479901500     26.446321006000
     209   70  2  -0.35000    -15.273177560300     36.774846854700     26.062440858300
     210   70  2  -0.35000    -13.368111344000     35.696112948400     26.830201153600
     211   71  1   0.70000    -73.660259252800    -58.864193837100    -73.751135412800
     212   71  2  -0.35000    -72.653018963800    -58.660509565400    -73.213009296000
     213   71  2  -0.35000    -74.667499541867    -59.067878108700    -74.289261529700
     214   72  1   0.70000     18.544132578300    -55.182053116800     17.820060223600
     215   72  2  -0.35000     18.854419336600    -54.133961306500     17.431697397200
     216   72  2  -0.35000     18.233845820100    -56.230144927000     18.208423050000
     217   73  1   0.70000    -42.743717957500    -35.410978113400      8.052708095660
     218   73  2  -0.35000    -42.012774674500    -34.611281305300      8.467204093110
     219   73  2  -0.35000    -43.474661240600    -36.210674921600      7.638212098210
     220   74  1   0.70000    -31.563945798600    -34.447849922500     11.939431394300
     221   74  2  -0.35000    -31.271976273400    -34.035931404700     12.983786186100
     222   74  2  -0.35000    -31.855915323700    -34.859768440400     10.895076602600
     223   75  1   0.70000    -48.897693242600    -16.277922829000     32.409708321300
     224   75  2  -0.35000    -49.005290692200    -16.337293874700     33.563180413600
     225   75  2  -0.35000    -48.790095792900    -16.218551783400     31.256236229000
     226   76  1   0.70000    -61.482402178200    -27.891997766800    -16.127823915200
     227   76  2  -0.35000    -62.302227892500    -28.326038574200    -15.431336746800
     228   76  2  -0.35000    -60.662576463900    -27.457956959500    -16.824311083600
     229   77  1   0.70000    -67.572288140900      9.653229345150     56.439552407500
     230   77  2  -0.35000    -67.154472649700      8.571135834390     56.449743054800
     231   77  2  -0.35000    -67.990103632100     10.735322855900     56.429361760200
     232   78  1   0.70000    -22.859433913700    -57.486097134300     26.388070418000
     233   78  2  -0.35000    -24.003407932900    -57.617508584100     26.528264834000
     234   78  2  -0.35000    -21.715459894500    -57.354685684600     26.247876002000
     235   79  1   0.70000    -29.885537608200     14.380912584300    -29.227466471900
     236   79  2  -0.35000    -30.275698097900     15.409500257700    -29.595409661100
     237   79  2  -0.35000    -29.495377118500     13.352324911000    -28.859523282800
     238   80  1   0.70000    -15.569876655000    -50.716218968800     17.761182138400
     239   80  2  -0.35000    -15.736244819700    -50.747340579500     18.908767899500
     240   80  2  -0.35000    -15.403508490300    -50.685097358000     16.613596377300
     241   81  1   0.70000     63.180540919600    -18.554499492300     67.495752881100
     242   81  2  -0.35000     64.058450521200    -19.312638444900     67.505755881300
     243   81  2  -0.35000     62.302631318000    -17.796360539700     67.485749881000
     244   82  1   0.70000     64.981867273000     19.909674842200    -56.835020197400
     245   82  2  -0.35000     64.763697996500     18.855298062800    -56.403404889700
     246   82  2  -0.35000     65.200036549500     20.964051621600    -57.266635505100
     247   83  1   0.70000     41.461147479200    -44.151192044900      1.400864720400
     248   83  2  -0.35000     40.714306587300    -44.391247345200      2.255383377310
     249   83  2  -0.35000     42.207988371100    -43.911136744500      0.546346063484
     250   84  1   0.70000     65.166476152600     52.093911975900     12.805460102700
     251   84  2  -0.35000     64.194465567100     52.229043304100     12.186966007400
     252   84  2  -0.35000     66.138486738000     51.958780647700     13.423954198000
     253   85  1   0.70000     47.435482314400     44.510518792500     49.100778332400
     254   85  2  -0.35000     48.274105059000     44.293792144600     49.872362062300
     255   85  2  -0.35000     46.596859569800     44.727245440400     48.329194602400
     256   86  1   0.70000    -49.436698608500     40.938834111500    -55.364768776900
     257   86  2  -0.35000    -48.564263574200     41.695548681800    -55.473581322000
     258   86  2  -0.35000    -50.309133642900     40.182119541300    -55.255956231700
     259   87  1   0.70000     45.551685885000    -60.562485543000     45.530788533700
     260   87  2  -0.35000     46.346004057200    -60.840629113900     44.732481077100
     261   87  2  -0.35000     44.757367712800    -60.284341972100     46.329095990200
     262   88  1   0.70000    -26.692111627300    -39.252505446600    -20.970115572400
     263   88  2  -0.35000    -25.638137921700    -39.713058899000    -21.120548100200
     264   88  2  -0.35000    -27.746085332900    -38.791951994200    -20.819683044600
     265   89  1   0.70000    -72.932351676900    -26.078441532900     41.212406967500
     266   89  2  -0.35000    -74.077089482500    -25.970396735500     41.059104397000
     267   89  2  -0.35000    -71.787613871200    -26.186486330300     41.365709538000
     268   90  1   0.70000     69.181145481400    -54.965649385300     63.832263010600
     269   90  2  -0.35000     69.820126233600    -54.713216300300     62.897607386300
     270   90  2  -0.35000     68.542164729200    -55.218082470400     64.766918634800
     271   91  1   0.70000     26.790820723200     36.515823075700     30.335723154900
     272   91  2  -0.35000     26.880393680500     35.642924220200     31.094422221300
     273   91  2  -0.35000     26.701247765900     37.388721931300     29.577024088600
     274   92  1   0.70000     54.655362800300      7.577713579040     68.725286220900
     275   92  2  -0.35000     54.408584070800      8.609597355590     68.256334058800
     276   92  2  -0.35000     54.902141529800      6.545829802490     69.194238383100
     277   93  1   0.70000    -47.799306445300     22.913194790100     28.349020104600
     278   93  2  -0.35000    -47.257002455700     22.054145023300     28.908966424500
     279   93  2  -0.35000    -48.341610434800     23.772244556900     27.789073784800
     280   94  1   0.70000     34.388897033700     22.384110189100    -69.637229890400
     281   94  2  -0.35000     33.873681051700     23.422801017200    -69.672921000400
     282   94  2  -0.35000     34.904113015700     21.345419360900    -69.601538780300
     283   95  1   0.70000     25.280538614600     71.121592407000     38.150813108200
     284   95  2  -0.35000     25.686090570700     70.274549064700     38.831728071500
     285   95  2  -0.35000     24.874986658500     71.968635749200     37.469898144800
     286   96  1   0.70000    -30.667855822700     -9.395422349280     -8.893712204930
     287   96  2  -0.35000    -31.016521054700     -9.945557878340     -9.853599414790
     288   96  2  -0.35000    -30.319190590700     -8.845286820210     -7.933824995080
     289   97  1   0.70000    -49.676043990100     17.862416216300    -29.150141307800
     290   97  2  -0.35000    -49.785538626700     18.994968725900    -29.375830778900
     291   97  2  -0.35000    -49.566549353500     16.729863706600    -28.924451836700
     292   98  1   0.70000     -7.175204164920    -39.464721697000     71.511313779400
     293   98  2  -0.35000     -8.024494712700    -38.799749984800     71.938066855000
     294   98  2  -0.35000     -6.325913617130    -40.129693409100     71.084560703800
     295   99  1   0.70000    -36.239976474800    -48.413417703000     55.320599153000
     296   99  2  -0.35000    -35.371226278800    -49.137362702300     55.579011101300
     297   99  2  -0.35000    -37.108726670700    -47.689472703700     55.062187204800
     298  100  1   0.70000    -69.831840151200     40.011181898300    -14.103293075500
     299  100  2  -0.35000    -70.354992895900     38.982081277600    -14.216708763200
     300  100  2  -0.35000    -69.308687406600     41.040282519000    -13.989877387900
     301  101  1   0.70000     31.016781696800    -67.524322885100    -45.937978553800
     302  101  2  -0.35000     30.069806310300    -66.906615201000    -45.678604626200
     303  101  2  -0.35000     31.963757083400    -68.142030569300    -46.197352481400
     304  102  1   0.70000    -21.878637746700     22.681267376000    -40.865372370400
     305  102  2  -0.35000    -21.033375234700     22.090457715800    -40.334264818800
     306  102  2  -0.35000    -22.723900258600     23.272077036100    -41.396479922000
     307  103  1   0.70000    -32.935923697800     24.359657715400    -66.928032713600
     308  103  2  -0.35000    -33.886223961300     23.708289294300    -67.063120052100
     309  103  2  -0.35000    -31.985623434200     25.011026136600    -66.792945375200
     310  104  1   0.70000      2.210331532870    -20.755844715300    -34.934116940300
     311  104  2  -0.35000      2.051881053340    -19.874609380600    -35.671624723600
     312  104  2  -0.35000      2.368782012390    -21.637080050000    -34.196609157100
     313  105  1   0.70000     53.938174233800    -25.994607963200     -3.544092900910
     314  105  2  -0.35000     54.839421582800    -26.133400428000     -2.827092295890
     315  105  2  -0.35000     53.036926884700    -25.855815498400     -4.261093505920
     316  106  1   0.70000     39.290317822600      1.166661300510     12.510027382200
     317  106  2  -0.35000     38.183553809000      0.885971860886     12.714690169900
     318  106  2  -0.35000     40.397081836200      1.447350740130     12.305364594500
     319  107  1   0.70000     56.839886225700    -27.288880335700     -5.065348605350
     320  107  2  -0.35000     56.207396302900    -26.928930156700     -5.968671563220
     321  107  2  -0.35000     57.472376148500    -27.648830514600     -4.162025647490
     322  108  1   0.70000     57.877099351200     33.777283039100     22.638756050600
     323  108  2  -0.35000     58.351847522300     32.915822020700     23.253653674600
     324  108  2  -0.35000     57.402351180200     34.638744057400     22.023858426600
     325  109  1   0.70000    -68.154202923500    -71.559107723400     -0.996836303725
     326  109  2  -0.35000    -67.799963906800    -72.575500466300     -1.429341230060
     327  109  2  -0.35000    -68.508441940100    -70.542714980500     -0.564331377385
     328  110  1   0.70000     50.334577879100     51.370679250000    -27.437354668900
     329  110  2  -0.35000     51.098036870600     51.059795461600    -28.253492916000
     330  110  2  -0.35000     49.571118887600     51.681563038400    -26.621216421700
     331  111  1   0.70000     20.883762150200      4.506522984080     18.946528276000
     332  111  2  -0.35000     20.045665532500      3.705259982020     18.912298744600
     333  111  2  -0.35000     21.721858768000      5.307785986140     18.980757807500
     334  112  1   0.70000    -22.212308861800     14.442576325600    -47.352864370500
     335  112  2  -0.35000    -21.232346154500     15.006553703300    -47.093629709100
     336  112  2  -0.35000    -23.192271569100     13.878598947900    -47.612099031800
     337  113  1   0.70000     65.421399050500     59.316335091600     67.208625956100
     338  113  2  -0.35000     66.018436557500     59.501522907300     66.231460827600
     339  113  2  -0.35000     64.824361543600     59.131147275900     68.185791084500
     340  114  1   0.70000     69.823062344200      3.966214216490    -72.453644689400