LAMMPS Atom File

         3000 atoms
         2000 bonds
         1000 angles
           0 dihedrals
           0 impropers

           2 atom types
           1 bond types
           1 angle types

         0.0  44.7739878419 xlo xhi
         0.0  44.7739878419 ylo yhi
         0.0  44.7739878419 zlo zhi

Masses

         1   12.01070
         2   15.99990

Atoms

       1    1  1   0.70000    -12.391270823200     15.436996107300    -22.216773252800
       2    1  2  -0.35000    -13.345619526800     15.251164725400    -22.849454254187
       3    1  2  -0.35000    -11.436922119700     15.622827489100    -21.584092251400
       4    2  1   0.70000    -21.634542067400      8.679451758970    -18.658902177900
       5    2  2  -0.35000    -22.065221632700      7.733146983680    -19.173316781400
       6    2  2  -0.35000    -21.203862502100      9.625756534270    -18.144487574400
       7    3  1   0.70000      6.406338165310     17.376943265200     -3.312162959420
       8    3  2  -0.35000      7.383603092700     17.086383995700     -3.865451828450
       9    3  2  -0.35000      5.429073237920     17.667502534800     -2.758874090390
      10    4  1   0.70000     -4.786683642050     11.165710498400    -21.790924452300
      11    4  2  -0.35000     -5.403396941950     12.106274195700    -21.507014894500
      12    4  2  -0.35000     -4.169970342150     10.225146801100    -22.074834010100
      13    5  1   0.70000    -17.742932927200     17.459660616700    -14.646900045300
      14    5  2  -0.35000    -18.633927293400     17.253488148000    -13.933302152600
      15    5  2  -0.35000    -16.851938560900     17.665833085400    -15.360497938100
      16    6  1   0.70000      4.857160087440      2.584096308290     -8.707919669470
      17    6  2  -0.35000      4.831640470640      2.699719141990     -7.553978549010
      18    6  2  -0.35000      4.882679704250      2.468473474590     -9.861860789920
      19    7  1   0.70000      1.754966972260    -16.868163500400     18.027174371900
      20    7  2  -0.35000      0.967710406709    -16.122321842400     18.438935614800
      21    7  2  -0.35000      2.542223537810    -17.614005158500     17.615413129000
      22    8  1   0.70000     -5.084271953610    -21.296945497300     -7.468158790280
      23    8  2  -0.35000     -5.936415447320    -22.079861283200     -7.387571333190
      24    8  2  -0.35000     -4.232128459900    -20.514029711300     -7.548746247370
      25    9  1   0.70000     -3.999796881410      0.614337014795     13.737304221900
      26    9  2  -0.35000     -4.832175904240      0.042533349748     13.166527793700
      27    9  2  -0.35000     -3.167417858590      1.186140679840     14.308080650100
      28   10  1   0.70000      6.048994175760    -12.950298958500     17.704320514500
      29   10  2  -0.35000      5.425477025800    -12.493551983100     16.839330015100
      30   10  2  -0.35000      6.672511325720    -13.407045933900     18.569311014000
      31   11  1   0.70000     -9.465451206530     19.810722464100      2.194720596150
      32   11  2  -0.35000     -8.836367285430     20.326449379400      3.021690468020
      33   11  2  -0.35000    -10.094535127600     19.294995548700      1.367750724280
      34   12  1   0.70000    -11.825573624900     15.660714234500      4.707374811320
      35   12  2  -0.35000    -11.801236211200     16.373820749900      5.621971327780
      36   12  2  -0.35000    -11.849911038700     14.947607719000      3.792778294850
      37   13  1   0.70000     10.430234556900     -0.007541180554      2.004866137370
      38   13  2  -0.35000     10.791431497500      0.182672911793      0.919069025022
      39   13  2  -0.35000     10.069037616300     -0.197755272902      3.090663249710
      40   14  1   0.70000    -16.891013999800     -6.224481766030     18.364314494100
      41   14  2  -0.35000    -16.974112664900     -5.154868056880     18.805473337500
      42   14  2  -0.35000    -16.807915334700     -7.294095475170     17.923155650800
      43   15  1   0.70000     20.930690929700     11.046368151700    -14.838821160100
      44   15  2  -0.35000     21.556161688200     10.688055265500    -15.747665594500
      45   15  2  -0.35000     20.305220171200     11.404681037900    -13.929976725800
      46   16  1   0.70000    -10.338877803400     10.795785943900     18.616196729400
      47   16  2  -0.35000    -10.080682793100     11.524109651300     17.751049392900
      48   16  2  -0.35000    -10.597072813700     10.067462236500     19.481344066000
      49   17  1   0.70000     -2.689308733070     17.591104037300     16.925317135900
      50   17  2  -0.35000     -3.299577087070     16.674423901800     16.560803671800
      51   17  2  -0.35000     -2.079040379070     18.507784172700     17.289830599900
      52   18  1   0.70000      0.048990006619    -18.823172023100    -14.993207200600
      53   18  2  -0.35000     -0.114620025053    -19.896163406500    -14.583913603500
      54   18  2  -0.35000      0.212600038290    -17.750180639600    -15.402500797600
      55   19  1   0.70000     19.256597784300      5.629948803610     22.066574451300
      56   19  2  -0.35000     19.190237072000      5.854927718190     20.930537152600
      57   19  2  -0.35000     19.322958496600      5.404969889020     23.202611749887
      58   20  1   0.70000    -10.822812578500    -21.653971557500      4.558863163050
      59   20  2  -0.35000    -10.607097631800    -21.833556222700      3.433333772140
      60   20  2  -0.35000    -11.038527525300    -21.474386892400      5.684392553960
      61   21  1   0.70000     -2.193105760880    -18.297742089100    -18.909189223900
      62   21  2  -0.35000     -2.901795658540    -18.201480680100    -19.822475800000
      63   21  2  -0.35000     -1.484415863220    -18.394003498100    -17.995902647800
      64   22  1   0.70000     -0.581918715383      1.842468042390     13.273927321700
      65   22  2  -0.35000      0.139603423696      2.356615245800     14.022698619200
      66   22  2  -0.35000     -1.303440854460      1.328320838980     12.525156024100
      67   23  1   0.70000     -1.604619873740     -1.644642101540     -2.875703255060
      68   23  2  -0.35000     -0.690026549678     -1.892070474820     -3.544955264160
      69   23  2  -0.35000     -2.519213197810     -1.397213728260     -2.206451245970
      70   24  1   0.70000      6.037840030230     20.834466648200      1.992517366550
      71   24  2  -0.35000      7.015908400820     20.224238683100      2.121374236930
      72   24  2  -0.35000      5.059771659640     21.444694613400      1.863660496170
      73   25  1   0.70000     -5.291999737320      7.102072835750    -17.320217557300
      74   25  2  -0.35000     -6.104022352340      6.688880333120    -18.038194735500
      75   25  2  -0.35000     -4.479977122290      7.515265338380    -16.602240379100
      76   26  1   0.70000    -21.409022135300    -16.212613173200     17.284001374000
      77   26  2  -0.35000    -21.316639144600    -15.952107210700     18.410590041900
      78   26  2  -0.35000    -21.501405126100    -16.473119135600     16.157412706200
      79   27  1   0.70000     15.519143587100     -6.749357229300      4.092743514450
      80   27  2  -0.35000     15.139734321800     -6.736463943680      2.996622000860
      81   27  2  -0.35000     15.898552852500     -6.762250514910      5.188865028050
      82   28  1   0.70000     14.895555381200     19.093747585200     18.122930987400
      83   28  2  -0.35000     15.065714994100     20.198136586400     17.811529895100
      84   28  2  -0.35000     14.725395768400     17.989358584000     18.434332079700
      85   29  1   0.70000     -9.231228659340     -8.287477342500    -19.137016400500
      86   29  2  -0.35000    -10.057661920000     -8.062423952870    -18.354738293100
      87   29  2  -0.35000     -8.404795398630     -8.512530732130    -19.919294508000
      88   30  1   0.70000      7.933994037270    -19.459270442400    -16.542444921500
      89   30  2  -0.35000      7.028236430230    -19.196382356900    -17.217791508000
      90   30  2  -0.35000      8.839751644310    -19.722158527900    -15.867098335100
      91   31  1   0.70000    -21.436696991400     -5.692206348080    -13.961339442400
      92   31  2  -0.35000    -20.696327004200     -6.065470034890    -13.150089479600
      93   31  2  -0.35000    -22.177066978700     -5.318942661270    -14.772589405100
      94   32  1   0.70000     11.748491153000    -20.095865978900      1.497697583270
      95   32  2  -0.35000     11.151567176500    -19.600435125200      2.360153399850
      96   32  2  -0.35000     12.345415129400    -20.591296832500      0.635241766696
      97   33  1   0.70000      4.476997358960     21.905912499900     -9.999077650590
      98   33  2  -0.35000      3.328043852550     21.827406524100    -10.138155513200
      99   33  2  -0.35000      5.625950865370     21.984418475600     -9.859999787950
     100   34  1   0.70000      6.729806128590      7.402883789540    -11.977823166100
     101   34  2  -0.35000      7.291189976700      6.918981862830    -11.085473963000
     102   34  2  -0.35000      6.168422280480      7.886785716250    -12.870172369300
     103   35  1   0.70000     12.368554423600    -18.774283717800     11.354841831700
     104   35  2  -0.35000     12.726910704900    -18.162913489300     10.436469783200
     105   35  2  -0.35000     12.010198142400    -19.385653946200     12.273213880300
     106   36  1   0.70000     -6.332315639810    -20.689451856200     10.820270880700
     107   36  2  -0.35000     -7.423846676970    -20.780803057300     11.202128122300
     108   36  2  -0.35000     -5.240784602650    -20.598100655100     10.438413639000
     109   37  1   0.70000     14.453870422600     -0.306497045511    -17.976905512600
     110   37  2  -0.35000     14.836907049900     -1.370414911220    -17.718135890800
     111   37  2  -0.35000     14.070833795300      0.757420820196    -18.235675134500
     112   38  1   0.70000     -4.450187247810    -14.400068275000     -5.395466775490
     113   38  2  -0.35000     -4.540430691340    -13.656581672300     -4.509642982270
     114   38  2  -0.35000     -4.359943804270    -15.143554877600     -6.281290568700
     115   39  1   0.70000     13.075720386500    -17.344941644200      6.952973713950
     116   39  2  -0.35000     12.174392717300    -17.449404523800      7.675674163440
     117   39  2  -0.35000     13.977048055600    -17.240478764700      6.230273264460
     118   40  1   0.70000     15.733483271100     15.062413379800     -7.358964684050
     119   40  2  -0.35000     16.205429432900     14.734779808100     -6.351233041690
     120   40  2  -0.35000     15.261537109300     15.390046951600     -8.366696326420
     121   41  1   0.70000    -17.463521122600     -7.231793199570    -11.591993215300
     122   41  2  -0.35000    -17.771377525600     -6.182965791620    -11.203682124200
     123   41  2  -0.35000    -17.155664719600     -8.280620607530    -11.980304306300
     124   42  1   0.70000    -14.527873364200    -16.719709619800      1.518146161880
     125   42  2  -0.35000    -13.693636291300    -16.965184403600      0.750428351361
     126   42  2  -0.35000    -15.362110437200    -16.474234836000      2.285863972390
     127   43  1   0.70000     10.929126982400     -9.690346555720    -13.660045795700
     128   43  2  -0.35000     12.055907270700     -9.546761421860    -13.424781070000
     129   43  2  -0.35000      9.802346694070     -9.833931689570    -13.895310521500
     130   44  1   0.70000     20.417296857300      6.368333689280     -6.467401759450
     131   44  2  -0.35000     21.448372705500      6.468495103710     -5.945434053170
     132   44  2  -0.35000     19.386221009100      6.268172274850     -6.989369465720
     133   45  1   0.70000     -1.712457570830      0.557006109496      0.939297704347
     134   45  2  -0.35000     -1.454202701400     -0.241792520512      1.739813270160
     135   45  2  -0.35000     -1.970712440260      1.355804739500      0.138782138531
     136   46  1   0.70000      8.704878638110     -6.419857969280      7.622138603170
     137   46  2  -0.35000      7.890435325970     -5.913666779990      8.274865629710
     138   46  2  -0.35000      9.519321950260     -6.926049158580      6.969411576620
     139   47  1   0.70000     17.407927181700      9.505478527200    -20.232440929700
     140   47  2  -0.35000     16.864188591900     10.520201093300    -20.090010385600
     141   47  2  -0.35000     17.951665771400      8.490755961120    -20.374871473700
     142   48  1   0.70000      5.762668280480     21.642052063700     19.467826720400
     143   48  2  -0.35000      5.148589710430     21.328158485500     20.400553010100
     144   48  2  -0.35000      6.376746850530     21.955945641900     18.535100430800
     145   49  1   0.70000      0.859575191547      5.773804882420    -22.245682223200
     146   49  2  -0.35000      0.736980214825      6.286795543580    -21.212526352500
     147   49  2  -0.35000      0.982170168268      5.260814221270    -23.278838093987
     148   50  1   0.70000    -18.116757742900      6.737759696770     10.670464630200
     149   50  2  -0.35000    -18.444016034100      6.740701005800     11.783340795600
     150   50  2  -0.35000    -17.789499451800      6.734818387730      9.557588464750
     151   51  1   0.70000     -5.457303848750     19.600697926100    -11.653360485300
     152   51  2  -0.35000     -4.645175220830     20.048326748900    -12.350264731700
     153   51  2  -0.35000     -6.269432476670     19.153069103200    -10.956456238900
     154   52  1   0.70000    -17.522380420600      6.721171886850     -6.294977027390
     155   52  2  -0.35000    -17.571940574100      6.768822436460     -5.137016226540
     156   52  2  -0.35000    -17.472820267100      6.673521337230     -7.452937828240
     157   53  1   0.70000    -18.852976442100    -20.546693344900     -3.284542989480
     158   53  2  -0.35000    -19.381402593100    -21.574497296300     -3.184618815510
     159   53  2  -0.35000    -18.324550291200    -19.518889393500     -3.384467163460
     160   54  1   0.70000      8.118885568990     21.391305699600    -20.697862112500
     161   54  2  -0.35000      9.147027564440     20.992359885100    -21.057537346900
     162   54  2  -0.35000      7.090743573530     21.790251514100    -20.338186878100
     163   55  1   0.70000     15.224167210700    -11.105636516200      7.909899001180
     164   55  2  -0.35000     15.510941525700    -10.082333213200      7.444914224740
     165   55  2  -0.35000     14.937392895600    -12.128939819200      8.374883777610
     166   56  1   0.70000     15.466618579700      6.520912522250    -13.894410238900
     167   56  2  -0.35000     14.339651118300      6.608265247650    -13.633807395000
     168   56  2  -0.35000     16.593586041100      6.433559796840    -14.155013082700
     169   57  1   0.70000    -10.714867304400     10.147922850300    -20.254789572600
     170   57  2  -0.35000     -9.603117469030     10.181500691000    -20.584159929900
     171   57  2  -0.35000    -11.826617139700     10.114345009600    -19.925419215300
     172   58  1   0.70000      1.094372712090    -12.943453003000     -0.796646877673
     173   58  2  -0.35000      0.925496406754    -12.486438787500      0.256072838277
     174   58  2  -0.35000      1.263249017440    -13.400467218500     -1.849366593620
     175   59  1   0.70000     -9.086205358080     12.338515820400     22.138004713200
     176   59  2  -0.35000     -9.443160274800     11.317393858200     21.719085716500
     177   59  2  -0.35000     -8.729250441360     13.359637782500     22.556923709887
     178   60  1   0.70000    -12.019008619400     -0.794954157324    -13.205252263000
     179   60  2  -0.35000    -12.309660857600     -1.201197866860    -14.252194154800
     180   60  2  -0.35000    -11.728356381200     -0.388710447786    -12.158310371200
     181   61  1   0.70000     -6.347553605050      8.951560137210    -20.507783180600
     182   61  2  -0.35000     -5.536804464690      9.026505512170    -19.681545307900
     183   61  2  -0.35000     -7.158302745410      8.876614762250    -21.334021053200
     184   62  1   0.70000    -21.347941478800    -21.242245557400    -15.840517597800
     185   62  2  -0.35000    -20.980550395200    -21.662461297000    -16.857396412500
     186   62  2  -0.35000    -21.715332562400    -20.822029817800    -14.823638783000
     187   63  1   0.70000    -15.587862152800     12.025323186000      6.671983924200
     188   63  2  -0.35000    -15.740143352000     10.876146506600      6.629517514910
     189   63  2  -0.35000    -15.435580953700     13.174499865400      6.714450333490
     190   64  1   0.70000      0.520918553959     -9.687771826700    -19.016806799100
     191   64  2  -0.35000      0.351383761068     -9.661734532610    -20.164055688100
     192   64  2  -0.35000      0.690453346850     -9.713809120800    -17.869557910100
     193   65  1   0.70000     11.554629593100     19.601564172600    -12.953282322100
     194   65  2  -0.35000     12.202242296500     18.766232462100    -13.431214032500
     195   65  2  -0.35000     10.907016889700     20.436895883100    -12.475350611700
     196   66  1   0.70000    -20.840517268700      7.653435573500     -8.162224224020
     197   66  2  -0.35000    -21.457503340500      7.635840865540     -9.144374219450
     198   66  2  -0.35000    -20.223531197000      7.671030281460     -7.180074228590
     199   67  1   0.70000     22.056651994800    -20.900713328400     -7.858954037250
     200   67  2  -0.35000     22.245883608500    -21.048961814300     -6.724135204660
     201   67  2  -0.35000     21.867420381100    -20.752464842500     -8.993772869850
     202   68  1   0.70000     -5.631289139430     10.438734751000      5.237230681970
     203   68  2  -0.35000     -6.451841461020     10.356876778500      6.053069612070
     204   68  2  -0.35000     -4.810736817840     10.520592723500      4.421391751860
     205   69  1   0.70000     21.966250194100    -18.166372478900    -18.534619150800
     206   69  2  -0.35000     23.125178263887    -18.189443449900    -18.490421193000
     207   69  2  -0.35000     20.807322124400    -18.143301508000    -18.578817108600
     208   70  1   0.70000      6.517421238980    -15.425700890000      4.262012404990
     209   70  2  -0.35000      6.728849710010    -16.459998574000      3.781256435160
     210   70  2  -0.35000      6.305992767940    -14.391403206000      4.742768374820
     211   71  1   0.70000    -14.932948661000     -8.457287680820     -0.938798288581
     212   71  2  -0.35000    -15.909784404500     -8.895825788020     -1.384977914690
     213   71  2  -0.35000    -13.956112917500     -8.018749573630     -0.492618662471
     214   72  1   0.70000     -9.329290978530    -10.387813040000      4.588185629470
     215   72  2  -0.35000    -10.088206862900    -10.028614784800      3.787796165590
     216   72  2  -0.35000     -8.570375094170    -10.747011295300      5.388575093340
     217   73  1   0.70000    -11.315451708900     -3.821528474180     10.067054112900
     218   73  2  -0.35000    -12.433569355100     -4.108813565790     10.180545105400
     219   73  2  -0.35000    -10.197334062700     -3.534243382570      9.953563120430
     220   74  1   0.70000    -12.453784985300     -7.216459406660     -2.823253507920
     221   74  2  -0.35000    -11.974981774800     -8.250712584840     -3.039280934660
     222   74  2  -0.35000    -12.932588195700     -6.182206228490     -2.607226081180
     223   75  1   0.70000    -17.502502423400      3.559548949510     13.027223786000
     224   75  2  -0.35000    -17.692074823000      3.272841000010     11.919315460800
     225   75  2  -0.35000    -17.312930023800      3.846256899010     14.135132111100
     226   76  1   0.70000    -14.305877374200    -13.916539373500     11.482095045000
     227   76  2  -0.35000    -13.496273482900    -13.862068810400     12.311054933600
     228   76  2  -0.35000    -15.115481265500    -13.971009936600     10.653135156400
     229   77  1   0.70000     -6.452817577320      5.845984411110     -7.853380301470
     230   77  2  -0.35000     -5.687418509380      6.640445745180     -7.494778216340
     231   77  2  -0.35000     -7.218216645270      5.051523077040     -8.211982386610
     232   78  1   0.70000     -1.513710184690    -16.497102906600      7.189899916330
     233   78  2  -0.35000     -1.135549462120    -16.533671128300      8.285918726870
     234   78  2  -0.35000     -1.891870907260    -16.460534684900      6.093881105780
     235   79  1   0.70000     21.026917213900     -5.832659137240    -18.922706774800
     236   79  2  -0.35000     20.576869876500     -4.802032088220    -18.638338563000
     237   79  2  -0.35000     21.476964551300     -6.863286186250    -19.207074986700
     238   80  1   0.70000     16.336474152900      3.387825454850    -20.008301435200
     239   80  2  -0.35000     16.393847579100      4.356874038970    -20.643323585700
     240   80  2  -0.35000     16.279100726700      2.418776870740    -19.373279284800
     241   81  1   0.70000     11.917207207600    -13.617143032000      0.147158844032
     242   81  2  -0.35000     13.023488549700    -13.563529602800     -0.197612373409
     243   81  2  -0.35000     10.810925865500    -13.670756461200      0.491930061473
     244   82  1   0.70000     14.993881704700    -11.848091487300    -11.010015427600
     245   82  2  -0.35000     16.122322706400    -11.608162341100    -11.131072895200
     246   82  2  -0.35000     13.865440703000    -12.088020633500    -10.888957960000
     247   83  1   0.70000     -5.539903496970      8.657554583580     -4.159749207560
     248   83  2  -0.35000     -4.565158786150      8.044253255580     -4.298796788650
     249   83  2  -0.35000     -6.514648207790      9.270855911580     -4.020701626480
     250   84  1   0.70000     16.525509827700     -0.366257793718     -8.638071223070
     251   84  2  -0.35000     17.281536624600     -0.543509157322     -7.776325647830
     252   84  2  -0.35000     15.769483030800     -0.189006430115     -9.499816798300
     253   85  1   0.70000      8.301864038130     15.614895645000      7.133567774780
     254   85  2  -0.35000      8.786542009630     15.406477901500      8.166645365350
     255   85  2  -0.35000      7.817186066630     15.823313388500      6.100490184210
     256   86  1   0.70000     -7.683884826710    -13.395545489300     20.821650773900
     257   86  2  -0.35000     -6.889378886630    -14.111413592000     21.270976013300
     258   86  2  -0.35000     -8.478390766780    -12.679677386600     20.372325534500
     259   87  1   0.70000     14.545585725700      5.655888545280     -6.714300052720
     260   87  2  -0.35000     13.781306741600      5.091859249830     -7.380144320000
     261   87  2  -0.35000     15.309864709800      6.219917840730     -6.048455785440
     262   88  1   0.70000     -9.124384583180    -18.609910779600     -5.713982992220
     263   88  2  -0.35000     -8.656062002720    -19.376414556100     -4.979989857930
     264   88  2  -0.35000     -9.592707163640    -17.843407003100     -6.447976126510
     265   89  1   0.70000    -13.905989182600      6.055021398910     -4.648150582450
     266   89  2  -0.35000    -13.264426607600      6.349532093120     -3.727682813620
     267   89  2  -0.35000    -14.547551757500      5.760510704700     -5.568618351270
     268   90  1   0.70000     -9.892374863890     -2.242826889040     -4.458715572350
     269   90  2  -0.35000     -9.185016691430     -1.421235844410     -4.871308072570
     270   90  2  -0.35000    -10.599733036400     -3.064417933660     -4.046123072130
     271   91  1   0.70000      0.949470937632    -10.726953719200     19.632895774000
     272   91  2  -0.35000      1.039043894930    -11.599852574800     20.391594840300
     273   91  2  -0.35000      0.859897980335     -9.854054863650     18.874196707700
     274   92  1   0.70000     -9.811572547040    -14.630288566200     17.602414436600
     275   92  2  -0.35000    -10.889382835900    -14.731198482800     18.019238344200
     276   92  2  -0.35000     -8.733762258160    -14.529378649600     17.185590529100
     277   93  1   0.70000    -21.756229521600      9.865126038610     -2.851444227220
     278   93  2  -0.35000    -21.965312008100      9.680338411700     -1.725505486980
     279   93  2  -0.35000    -21.547147035100     10.049913665500     -3.977382967460
     280   94  1   0.70000      9.897316284580    -19.411252713200    -12.521706946400
     281   94  2  -0.35000     10.376769442300    -20.046804371700    -13.365388615600
     282   94  2  -0.35000      9.417863126830    -18.775701054700    -11.678025277300
     283   95  1   0.70000     -7.051014724040      7.368601741560    -12.872436071300
     284   95  2  -0.35000     -6.552551420740      7.259692392650    -11.830671659900
     285   95  2  -0.35000     -7.549478027350      7.477511090480    -13.914200482800
     286   96  1   0.70000     -6.899109081120     11.507441087200     -6.695587780540
     287   96  2  -0.35000     -6.178191205780     10.611282200600     -6.544668375000
     288   96  2  -0.35000     -7.620026956450     12.403599973900     -6.846507186080
     289   97  1   0.70000    -11.994342398900      6.718644855550      8.328445933510
     290   97  2  -0.35000    -12.580699201100      6.608214929770      9.323227784920
     291   97  2  -0.35000    -11.407985596600      6.829074781330      7.333664082090
     292   98  1   0.70000     10.246533333600    -11.550834113400    -10.559208954300
     293   98  2  -0.35000      9.601719531270    -11.255968841500     -9.641129637630
     294   98  2  -0.35000     10.891347136000    -11.845699385400    -11.477288271000
     295   99  1   0.70000     -7.085260654790    -17.800583434000     16.222878056300
     296   99  2  -0.35000     -6.270469363340    -18.559693812500     15.898121863800
     297   99  2  -0.35000     -7.900051946250    -17.041473055400     16.547634248800
     298  100  1   0.70000     -7.545011218340     20.048509312800     -8.058980888800
     299  100  2  -0.35000     -7.755152374000     20.742390315200     -8.964502754410
     300  100  2  -0.35000     -7.334870062680     19.354628310300     -7.153459023190
     301  101  1   0.70000      0.732584983629      2.013065912190    -11.658027042300
     302  101  2  -0.35000     -0.399012587791      2.264253967080    -11.702653239100
     303  101  2  -0.35000      1.864182555050      1.761877857300    -11.613400845600
     304  102  1   0.70000     -3.823991757690    -20.226942374500      4.808607831050
     305  102  2  -0.35000     -4.670680420040    -20.184143893400      4.016846125070
     306  102  2  -0.35000     -2.977303095350    -20.269740855700      5.600369537040
     307  103  1   0.70000      3.584202645300    -21.743005184200     11.559571579900
     308  103  2  -0.35000      4.528885862400    -21.114162254900     11.319300504700
     309  103  2  -0.35000      2.639519428190    -22.371848113500     11.799842655100
     310  104  1   0.70000    -17.100791039600     17.260985767000      2.371847086520
     311  104  2  -0.35000    -16.755686448700     18.145101981900      1.704882814690
     312  104  2  -0.35000    -17.445895630500     16.376869552100      3.038811358340
     313  105  1   0.70000      2.270593499100      9.886725735040      1.027641837350
     314  105  2  -0.35000      2.377893218410      9.253068450500      0.061947674596
     315  105  2  -0.35000      2.163293779790     10.520383019600      1.993336000110
     316  106  1   0.70000     -8.240289957590     10.955614225600      1.877553348760
     317  106  2  -0.35000     -7.530306012520     10.043978856900      1.979748027120
     318  106  2  -0.35000     -8.950273902660     11.867249594300      1.775358670390
     319  107  1   0.70000     -3.264717998080      2.850172922360     -3.056586953660
     320  107  2  -0.35000     -2.532394610820      2.039802331450     -3.447229964420
     321  107  2  -0.35000     -3.997041385330      3.660543513270     -2.665943942890
     322  108  1   0.70000     11.558748142200    -20.880686434900      8.071787659580
     323  108  2  -0.35000     12.137859411700    -21.662022036200      7.439533900630
     324  108  2  -0.35000     10.979636872700    -20.099350833600      8.704041418530
     325  109  1   0.70000    -10.944239934000     -1.095584690510     12.676190245500
     326  109  2  -0.35000    -11.784062657500     -1.894696354730     12.717643125400
     327  109  2  -0.35000    -10.104417210500     -0.296473026294     12.634737365600
     328  110  1   0.70000     13.447855724000    -10.002656859300     19.250179291700
     329  110  2  -0.35000     12.696483715100    -10.125011610600     20.125433208600
     330  110  2  -0.35000     14.199227733000     -9.880302107970     18.374925374800
     331  111  1   0.70000    -18.812349419000    -11.218443225100     -4.794574822910
     332  111  2  -0.35000    -19.650446036800    -12.019706227100     -4.828804354360
     333  111  2  -0.35000    -17.974252801200    -10.417180223000     -4.760345291460
     334  112  1   0.70000      0.905552516324     -7.067837082530    -21.952535758800
     335  112  2  -0.35000      1.885515223670     -6.503859704830    -21.693301097400
     336  112  2  -0.35000     -0.074410191020     -7.631814460240    -22.211770420100
     337  113  1   0.70000     17.487010503800     20.637667058900    -10.419195125400
     338  113  2  -0.35000     16.888345308400     20.126386181600     -9.567260944650
     339  113  2  -0.35000     18.085675699200     21.148947936300    -11.271129306100
     340  114  1   0.70000    -19.381561173600    -15.239176050400     12.014264392700