LAMMPS Atom File

         3000 atoms
         2000 bonds
         1000 angles
           0 dihedrals
           0 impropers

           2 atom types
           1 bond types
           1 angle types

         0.0  42.2612293464 xlo xhi
         0.0  42.2612293464 ylo yhi
         0.0  42.2612293464 zlo zhi

Masses

         1   12.01070
         2   15.99990

Atoms

       1    1  1   0.70000    -12.380981008000     17.563411948700    -19.925750084100
       2    1  2  -0.35000    -12.106103452100     18.560569447500    -19.400660328200
       3    1  2  -0.35000    -12.655858564000     16.566254449800    -20.450839840000
       4    2  1   0.70000      4.429274766370     15.978623870900     -2.843173697610
       5    2  2  -0.35000      5.553077358050     16.200153320300     -2.659891298170
       6    2  2  -0.35000      3.305472174690     15.757094421400     -3.026456097050
       7    3  1   0.70000      3.512363256310     12.924316131100    -17.482123926500
       8    3  2  -0.35000      3.759286069490     14.010252796900    -17.157515420400
       9    3  2  -0.35000      3.265440443140     11.838379465300    -17.806732432600
      10    4  1   0.70000    -20.173023612600     14.421287434400    -10.722091403800
      11    4  2  -0.35000    -19.633359448300     15.004833260500     -9.877202737470
      12    4  2  -0.35000    -20.712687776900     13.837741608200    -11.566980070200
      13    5  1   0.70000     11.158857523300     -2.652397833250     -5.651566648320
      14    5  2  -0.35000     10.891603964400     -3.771962358720     -5.507515238950
      15    5  2  -0.35000     11.426111082300     -1.532833307790     -5.795618057700
      16    6  1   0.70000      4.180424954930    -15.363761334500     18.430574780100
      17    6  2  -0.35000      5.020077862680    -14.570438566600     18.536508629500
      18    6  2  -0.35000      3.340772047180    -16.157084102400     18.324640930600
      19    7  1   0.70000     -6.760100430080    -20.087626371100     -7.219290108660
      20    7  2  -0.35000     -5.634890639090    -19.988738546900     -7.483343369370
      21    7  2  -0.35000     -7.885310221080    -20.186514195200     -6.955236847950
      22    8  1   0.70000      2.849989216700      2.973437546640      9.709955217580
      23    8  2  -0.35000      3.999584056200      2.859020097240      9.605359078710
      24    8  2  -0.35000      1.700394377200      3.087854996040      9.814551356440
      25    9  1   0.70000      8.300218230800    -12.795388181200     15.895692166300
      26    9  2  -0.35000      8.149922111220    -11.946727625500     16.672085325500
      27    9  2  -0.35000      8.450514350390    -13.644048736900     15.119299007100
      28   10  1   0.70000    -10.984366624300     19.402666745000      3.924865726760
      29   10  2  -0.35000    -10.721473638600     18.277049390700      4.022194292290
      30   10  2  -0.35000    -11.247259610000     20.528284099300      3.827537161230
      31   11  1   0.70000     -9.374053736330     14.901622825700      5.461831866920
      32   11  2  -0.35000     -9.213279706720     14.295455448200      4.485966701070
      33   11  2  -0.35000     -9.534827765940     15.507790203200      6.437697032760
      34   12  1   0.70000     14.271261963200      2.502282454330      1.719669936340
      35   12  2  -0.35000     14.095253421100      1.369803573030      1.898869759220
      36   12  2  -0.35000     14.447270505300      3.634761335630      1.540470113460
      37   13  1   0.70000    -14.329813850900     -8.273310373030     17.404020733600
      38   13  2  -0.35000    -15.078803554000     -8.191780856380     16.521996152000
      39   13  2  -0.35000    -13.580824147900     -8.354839889680     18.286045315200
      40   14  1   0.70000     18.898532776500     11.535133864000    -11.836033861500
      41   14  2  -0.35000     18.225978714400     12.247741769300    -11.215178800400
      42   14  2  -0.35000     19.571086838600     10.822525958600    -12.456888922500
      43   15  1   0.70000     -8.666207793400     16.229424003000     19.038774809000
      44   15  2  -0.35000     -8.301015109080     16.665918066300     18.027979460800
      45   15  2  -0.35000     -9.031400477720     15.792929939800     20.049570157300
      46   16  1   0.70000     -4.946240920400     17.184235600000     15.077927937600
      47   16  2  -0.35000     -4.085431657240     16.499683083000     14.709152580600
      48   16  2  -0.35000     -5.807050183550     17.868788117000     15.446703294600
      49   17  1   0.70000      4.069313210760     16.160106399600    -14.405484106200
      50   17  2  -0.35000      4.473646238240     15.092730171000    -14.612420786500
      51   17  2  -0.35000      3.664980183290     17.227482628100    -14.198547425800
      52   18  1   0.70000     16.806326141200      6.249088373320     19.922608425500
      53   18  2  -0.35000     16.277081172500      5.785978615450     20.845120818600
      54   18  2  -0.35000     17.335571109900      6.712198131180     19.000096032500
      55   19  1   0.70000    -10.237036836300    -18.250212250800      5.129965613600
      56   19  2  -0.35000     -9.974143487060    -17.136007943600      5.317144268790
      57   19  2  -0.35000    -10.499930185500    -19.364416557900      4.942786958410
      58   20  1   0.70000     -1.938794781940    -15.296501403500     20.714040063700
      59   20  2  -0.35000     -1.004773653150    -15.951800607100     20.504785470700
      60   20  2  -0.35000     -2.872815910730    -14.641202199900     20.923294656800
      61   21  1   0.70000     -3.011919875480      6.607501723460     16.611902129400
      62   21  2  -0.35000     -2.522742193790      7.658201365350     16.660228708800
      63   21  2  -0.35000     -3.501097557160      5.556802081570     16.563575550000
      64   22  1   0.70000     -0.601868452995     -6.619454476590     -3.320896817010
      65   22  2  -0.35000      0.409226572561     -7.187531471820     -3.296909804280
      66   22  2  -0.35000     -1.612963478550     -6.051377481350     -3.344883829750
      67   23  1   0.70000      6.096280595340     16.522861878800      3.454695421110
      68   23  2  -0.35000      5.789594159080     17.309272730800      4.250372115340
      69   23  2  -0.35000      6.402967031600     15.736451026900      2.659018726880
      70   24  1   0.70000    -10.194214616600     11.134102100100    -15.122309191700
      71   24  2  -0.35000    -10.475759995100     10.939375068800    -14.013970983800
      72   24  2  -0.35000     -9.912669238150     11.328829131500    -16.230647399700
      73   25  1   0.70000     21.101587330200    -15.109780769900     14.589103630200
      74   25  2  -0.35000     20.003180377500    -15.009074409600     14.229993068800
      75   25  2  -0.35000     22.199994282848    -15.210487130200     14.948214191600
      76   26  1   0.70000     10.381698292000     -6.893025074360      1.715324083040
      77   26  2  -0.35000     11.264196872200     -6.906421002360      0.962584549689
      78   26  2  -0.35000      9.499199711810     -6.879629146370      2.468063616390
      79   27  1   0.70000     20.084462342200     15.730911046600     18.677314540800
      80   27  2  -0.35000     20.720911781800     15.189497207600     17.872700865900
      81   27  2  -0.35000     19.448012902600     16.272324885600     19.481928215600
      82   28  1   0.70000      6.623968757850    -17.603579509700    -17.714092584300
      83   28  2  -0.35000      5.757900474430    -17.410999416200    -16.966805065300
      84   28  2  -0.35000      7.490037041270    -17.796159603200    -18.461380103200
      85   29  1   0.70000    -17.377967192400     -8.973616469690    -13.788219779700
      86   29  2  -0.35000    -17.322531561400     -7.867501528980    -13.443202926800
      87   29  2  -0.35000    -17.433402823300    -10.079731410400    -14.133236632500
      88   30  1   0.70000     13.131127855700    -15.335802084000      1.742566410980
      89   30  2  -0.35000     13.577637006900    -15.943798605600      2.623798393810
      90   30  2  -0.35000     12.684618704500    -14.727805562300      0.861334428156
      91   31  1   0.70000      3.026870188310      8.167023354350    -12.040297070000
      92   31  2  -0.35000      4.162345948720      8.023817765570    -11.851122661400
      93   31  2  -0.35000      1.891394427900      8.310228943120    -12.229471478500
      94   32  1   0.70000      6.592841186460     18.350149567000     19.959650650500
      95   32  2  -0.35000      7.421551409230     18.970806692100     19.436559740900
      96   32  2  -0.35000      5.764130963690     17.729492441900     20.482741560100
      97   33  1   0.70000     -1.558406039510    -19.413491668800     14.567682711900
      98   33  2  -0.35000     -1.488963806690    -18.396367554900     15.121068936100
      99   33  2  -0.35000     -1.627848272330    -20.430615782700     14.014296487600
     100   34  1   0.70000     16.275088342200     -3.764262291240     21.051715898200
     101   34  2  -0.35000     16.112047328500     -4.491212385930     20.162580819800
     102   34  2  -0.35000     16.438129356000     -3.037312196540     21.940850976648
     103   35  1   0.70000     -7.831444940580    -11.346568802500     -0.944827352262
     104   35  2  -0.35000     -6.754991447130    -11.202132323700     -0.537413582177
     105   35  2  -0.35000     -8.907898434030    -11.491005281200     -1.352241122350
     106   36  1   0.70000     17.115884458300    -18.004402372500      6.751088885980
     107   36  2  -0.35000     18.047469301600    -18.364374203400      6.161029600240
     108   36  2  -0.35000     16.184299615000    -17.644430541600      7.341148171710
     109   37  1   0.70000     12.351583108200     15.028954361100     -5.474477307160
     110   37  2  -0.35000     11.867185565800     16.004825505400     -5.872766813210
     111   37  2  -0.35000     12.835980650700     14.053083216800     -5.076187801100
     112   38  1   0.70000    -13.175159505400    -11.904250292000    -11.569127698300
     113   38  2  -0.35000    -12.906989600900    -13.022111026900    -11.413975258000
     114   38  2  -0.35000    -13.443329409800    -10.786389557200    -11.724280138600
     115   39  1   0.70000    -14.848986663100    -18.915048752700      4.142572788100
     116   39  2  -0.35000    -14.105500345400    -18.846959332500      5.030374526250
     117   39  2  -0.35000    -15.592472980800    -18.983138172900      3.254771049950
     118   40  1   0.70000     10.316192370600     -8.412628833680     -9.500727820750
     119   40  2  -0.35000      9.694755967590     -8.642666714060     -8.548625215700
     120   40  2  -0.35000     10.937628773700     -8.182590953310    -10.452830425800
     121   41  1   0.70000     16.236090542500      2.887498757610     -8.194127712560
     122   41  2  -0.35000     16.696110160600      2.556431399810     -7.182012918900
     123   41  2  -0.35000     15.776070924400      3.218566115410     -9.206242506220
     124   42  1   0.70000      1.573828200020      0.233561990355      0.629275211261
     125   42  2  -0.35000      2.432000621480      0.678736817103      1.270336416360
     126   42  2  -0.35000      0.715655778570     -0.211612836392     -0.011785993842
     127   43  1   0.70000      8.707205731660     -9.173666226450      6.058206676170
     128   43  2  -0.35000      9.344392459040     -8.205960368220      6.114228514850
     129   43  2  -0.35000      8.070019004290    -10.141372084700      6.002184837490
     130   44  1   0.70000     14.436180565300      6.570498145080    -16.725480815900
     131   44  2  -0.35000     14.001863535900      7.506673671520    -16.195816675500
     132   44  2  -0.35000     14.870497594800      5.634322618640    -17.255144956300
     133   45  1   0.70000      5.653494459360     -9.527017318690     18.485827888600
     134   45  2  -0.35000      5.915054893860     -8.676358647970     19.229848026200
     135   45  2  -0.35000      5.391934024860    -10.377675989400     17.741807751100
     136   46  1   0.70000     -0.957068987288     10.774722849400    -19.237801397800
     137   46  2  -0.35000     -2.076136979520     10.881575047800    -18.951673041200
     138   46  2  -0.35000      0.161999004948     10.667870650900    -19.523929754400
     139   47  1   0.70000    -15.439829177300     11.013474341500     13.792285678500
     140   47  2  -0.35000    -15.609294167600     10.349243724200     12.856508298900
     141   47  2  -0.35000    -15.270364187100     11.677704958800     14.728063058100
     142   48  1   0.70000      1.077861798340     17.500963497600     -5.584463215900
     143   48  2  -0.35000      0.121877042537     18.011970347600     -5.171467881860
     144   48  2  -0.35000      2.033846554150     16.989956647600     -5.997458549940
     145   49  1   0.70000    -15.799093391700     10.354314490400     -3.433834962190
     146   49  2  -0.35000    -15.895236189900     11.457544712700     -3.088524031250
     147   49  2  -0.35000    -15.702950593400      9.251084268170     -3.779145893120
     148   50  1   0.70000    -17.737281098700    -21.050504020100     -3.898470539440
     149   50  2  -0.35000    -18.252733036500    -21.974875282448     -4.373283206930
     150   50  2  -0.35000    -17.221829160900    -20.126132757800     -3.423657871950
     151   51  1   0.70000      1.051659455030    -18.028252387200    -16.150625134500
     152   51  2  -0.35000      1.014520667130    -17.870490746400    -15.002003362400
     153   51  2  -0.35000      1.088798242930    -18.186014027900    -17.299246906500
     154   52  1   0.70000     14.293436412000     -9.869083198250     10.171469165100
     155   52  2  -0.35000     14.559813714100     -9.545755915850      9.089756356030
     156   52  2  -0.35000     14.027059109900    -10.192410480600     11.253181974200
     157   53  1   0.70000     -5.541191532330     10.226854960000    -14.805578416200
     158   53  2  -0.35000     -5.030571649560      9.865354872120    -13.828754470000
     159   53  2  -0.35000     -6.051811415100     10.588355047800    -15.782402362400
     160   54  1   0.70000      1.013431684710     -9.509131383110      0.599030246926
     161   54  2  -0.35000      0.509852367030     -9.924338369290      1.557993765230
     162   54  2  -0.35000      1.517011002390     -9.093924396940     -0.359933271378
     163   55  1   0.70000    -12.763638678100     14.973478775000     19.172801220600
     164   55  2  -0.35000    -11.689104766900     14.666513348200     18.861756046200
     165   55  2  -0.35000    -13.838172589200     15.280444201800     19.483846395000
     166   56  1   0.70000    -13.250411760700      0.311884952787    -10.935120618400
     167   56  2  -0.35000    -13.261522245500      0.014869327163     -9.813845328690
     168   56  2  -0.35000    -13.239301275900      0.608900578411    -12.056395908100
     169   57  1   0.70000    -20.291223068300     20.213764298300    -16.587530005200
     170   57  2  -0.35000    -19.429274502200     19.604037567700    -17.068027646700
     171   57  2  -0.35000    -21.153171634248     20.823491029000    -16.107032363800
     172   58  1   0.70000    -13.533932604700     12.385402497300      2.485651650960
     173   58  2  -0.35000    -12.377050891200     12.303101163100      2.506892916640
     174   58  2  -0.35000    -14.690814318200     12.467703831400      2.464410385270
     175   59  1   0.70000      2.128712405890     -7.186598695090    -20.259807279500
     176   59  2  -0.35000      2.545967134910     -7.515585789330    -19.228659383700
     177   59  2  -0.35000      1.711457676880     -6.857611600840    -21.290955175248
     178   60  1   0.70000     12.875373646700     14.657683301900    -18.570639865200
     179   60  2  -0.35000     12.870782310700     15.158270299600    -19.617058317500
     180   60  2  -0.35000     12.879964982600     14.157096304300    -17.524221412900
     181   61  1   0.70000    -19.085182922500      6.344740244900     -7.290958290390
     182   61  2  -0.35000    -18.990474057200      5.389048833040     -7.941561207810
     183   61  2  -0.35000    -19.179891787700      7.300431656750     -6.640355372970
     184   62  1   0.70000     18.435648033500    -20.374469436600     -6.895427221940
     185   62  2  -0.35000     18.008202717700    -21.360126528548     -6.457967967710
     186   62  2  -0.35000     18.863093349400    -19.388812344700     -7.332886476180
     187   63  1   0.70000     -1.386062454850     17.383264424400      4.858926955640
     188   63  2  -0.35000     -2.228632273670     18.168036895100      4.999668810620
     189   63  2  -0.35000     -0.543492636022     16.598491953800      4.718185100660
     190   64  1   0.70000    -20.951058390600    -19.343408694100    -19.424699962000
     191   64  2  -0.35000    -21.692363798848    -19.286263402600    -18.534306393100
     192   64  2  -0.35000    -20.209752982400    -19.400553985700    -20.315093530800
     193   65  1   0.70000      3.280744980140    -15.154027613000      2.873263463490
     194   65  2  -0.35000      2.653713001840    -15.476988173000      3.794201775700
     195   65  2  -0.35000      3.907776958440    -14.831067053100      1.952325151270
     196   66  1   0.70000    -11.944865095000     -9.050598517930     -7.531068294580
     197   66  2  -0.35000    -12.211443478800    -10.051587866100     -7.008999055810
     198   66  2  -0.35000    -11.678286711100     -8.049609169740     -8.053137533360
     199   67  1   0.70000     -7.275577658220     -9.966289955730      5.075591337810
     200   67  2  -0.35000     -6.400670475960     -9.871702498870      4.319819788050
     201   67  2  -0.35000     -8.150484840490    -10.060877412600      5.831362887560
     202   68  1   0.70000    -12.150223998500     -5.526743084750     10.588972525100
     203   68  2  -0.35000    -11.105558843000     -5.944440229680     10.871468202900
     204   68  2  -0.35000    -13.194889154000     -5.109045939820     10.306476847200
     205   69  1   0.70000    -17.160730067400     -4.914989174100     -5.428326167120
     206   69  2  -0.35000    -17.748170690300     -4.134372052740     -6.053746365350
     207   69  2  -0.35000    -16.573289444500     -5.695606295460     -4.802905968880
     208   70  1   0.70000    -20.501866876300      4.689407789200    -20.957479807300
     209   70  2  -0.35000    -20.780838961100      5.777165705040    -21.248267173648
     210   70  2  -0.35000    -20.222894791500      3.601649873360    -20.666692441000
     211   71  1   0.70000     -8.617509360320    -18.620905507000      9.339521830470
     212   71  2  -0.35000     -8.442187367390    -17.476077271200      9.274479465170
     213   71  2  -0.35000     -8.792831353260    -19.765733742900      9.404564195770
     214   72  1   0.70000     -8.308139761050      4.014837384320     -8.951166264260
     215   72  2  -0.35000     -7.463199793580      4.187561436100     -9.726951578190
     216   72  2  -0.35000     -9.153079728530      3.842113332550     -8.175380950340
     217   73  1   0.70000     -4.954961188230    -15.502404626900      4.635344885440
     218   73  2  -0.35000     -5.615651243670    -15.839218281100      5.527334354510
     219   73  2  -0.35000     -4.294271132790    -15.165590972600      3.743355416370
     220   74  1   0.70000     18.630681659100     -1.936712514080    -19.037740582000
     221   74  2  -0.35000     18.126683439800     -2.310801161350    -18.062218424900
     222   74  2  -0.35000     19.134679878300     -1.562623866820    -20.013262739100
     223   75  1   0.70000     19.385625103000      5.843721217370    -17.541943630900
     224   75  2  -0.35000     18.525699252700      5.778574119400    -16.766132192700
     225   75  2  -0.35000     20.245550953300      5.908868315340    -18.317755069000
     226   76  1   0.70000     10.667383073400    -11.766348437200      2.943746651470
     227   76  2  -0.35000     11.625023380400    -12.420137934400      2.910817397630
     228   76  2  -0.35000      9.709742766430    -11.112558939900      2.976675905310
     229   77  1   0.70000     17.161774248300     13.777444111300      4.914525432840
     230   77  2  -0.35000     17.632780230100     13.820053222300      3.855309766050
     231   77  2  -0.35000     16.690768266500     13.734835000400      5.973741099630
     232   78  1   0.70000     12.101174635700     12.886366317400     13.758479333200
     233   78  2  -0.35000     11.884206661900     13.832499356700     13.123375270600
     234   78  2  -0.35000     12.318142609500     11.940233278200     14.393583395900
     235   79  1   0.70000    -12.442200573800     10.867242045000    -18.082502211300
     236   79  2  -0.35000    -12.448968714600     11.605712992600    -18.977049500000
     237   79  2  -0.35000    -12.435432432900     10.128771097400    -17.187954922500
     238   80  1   0.70000     -8.852496810020     -9.191556768180     -7.932930151930
     239   80  2  -0.35000     -9.249072903800    -10.175100101000     -8.403004522900
     240   80  2  -0.35000     -8.455920716240     -8.208013435330     -7.462855780950
     241   81  1   0.70000    -17.141645385800     -9.545786448030     13.992483499600
     242   81  2  -0.35000    -17.955932696000     -9.182389689770     13.250540798000
     243   81  2  -0.35000    -16.327358075500     -9.909183206290     14.734426201100
     244   82  1   0.70000     19.457309906300    -13.668364586700     20.404146242300
     245   82  2  -0.35000     20.500170815900    -13.160918987200     20.427386008000
     246   82  2  -0.35000     18.414448996600    -14.175810186200     20.380906476700
     247   83  1   0.70000      3.992476316860     10.595920426800      5.519919809060
     248   83  2  -0.35000      3.803085489840     11.378030786300      6.355404399080
     249   83  2  -0.35000      4.181867143880      9.813810067260      4.684435219040
     250   84  1   0.70000     13.607395482300      5.352231953270     20.219772123700
     251   84  2  -0.35000     13.677200930500      4.213211266000     20.011543707300
     252   84  2  -0.35000     13.537590034100      6.491252640530     20.428000540100
     253   85  1   0.70000    -11.681945890400      7.935653625190      8.269764357900
     254   85  2  -0.35000    -10.866465761100      8.716115993910      8.537104309540
     255   85  2  -0.35000    -12.497426019700      7.155191256470      8.002424406260
     256   86  1   0.70000      9.095771775420      7.024911359750     19.337392685300
     257   86  2  -0.35000      9.615373549410      7.462443570220     20.277700912000
     258   86  2  -0.35000      8.576170001430      6.587379149270     18.397084458500
     259   87  1   0.70000      7.560741016480    -18.677710176900      9.839640049020
     260   87  2  -0.35000      7.568111039410    -18.885193727900      8.698370467000
     261   87  2  -0.35000      7.553370993550    -18.470226626000     10.980909631000
     262   88  1   0.70000     -8.855952828500     -3.239563201490     -3.648078923340
     263   88  2  -0.35000     -7.781440899840     -3.316456712570     -4.078324786900
     264   88  2  -0.35000     -9.930464757170     -3.162669690410     -3.217833059780
     265   89  1   0.70000    -12.237612929900      6.811147510240     -7.111235496090
     266   89  2  -0.35000    -12.087974625200      7.866678640390     -7.568468927770
     267   89  2  -0.35000    -12.387251234600      5.755616380090     -6.654002064420
     268   90  1   0.70000      0.448577945343    -13.285807639900     18.860335445700
     269   90  2  -0.35000     -0.701514859907    -13.224094114500     18.998458507100
     270   90  2  -0.35000      1.598670750590    -13.347521165200     18.722212384300
     271   91  1   0.70000     20.617047716100      8.699888072540     -0.197833552269
     272   91  2  -0.35000     20.502139323600      7.952656125240      0.681962150289
     273   91  2  -0.35000     20.731956108700      9.447120019850     -1.077629254830
     274   92  1   0.70000      7.701050189250     20.912666717200    -11.787817171500
     275   92  2  -0.35000      8.742765964200     20.712520393300    -11.318381666600
     276   92  2  -0.35000      6.659334414310     21.112813041100    -12.257252676400
     277   93  1   0.70000     -9.884004601860      9.475763601840    -10.646666961100
     278   93  2  -0.35000     -9.639781509330      8.887053122830     -9.677453335000
     279   93  2  -0.35000    -10.128227694400     10.064474080800    -11.615880587200
     280   94  1   0.70000     -6.732980378850      8.669256554330     19.389958559500
     281   94  2  -0.35000     -7.708773631070      8.971764842390     19.939427634700
     282   94  2  -0.35000     -5.757187126640      8.366748266270     18.840489484300
     283   95  1   0.70000     -0.763332426032     -2.180029212600     -9.196574641180
     284   95  2  -0.35000     -0.631784273899     -1.198704307000     -8.592176996140
     285   95  2  -0.35000     -0.894880578165     -3.161354118190     -9.800972286210
     286   96  1   0.70000     10.116592248600      0.702763881749      2.435631928800
     287   96  2  -0.35000      9.371206387000      1.529870542520      2.761046263250
     288   96  2  -0.35000     10.861978110100     -0.124342779027      2.110217594350
     289   97  1   0.70000     16.409274233800     -8.236822192060     -1.237938344340
     290   97  2  -0.35000     16.337779834600     -7.877037343890     -0.137464167481
     291   97  2  -0.35000     16.480768632900     -8.596607040230     -2.338412521190
     292   98  1   0.70000     19.053705859700      7.107828049790      5.839808296310
     293   98  2  -0.35000     19.561995834300      6.427184150690      5.049893627270
     294   98  2  -0.35000     18.545415885200      7.788471948900      6.629722965350
     295   99  1   0.70000    -20.117649404500     18.544950046800      1.753719501160
     296   99  2  -0.35000    -19.178046843300     17.938330345900      1.445889084690
     297   99  2  -0.35000    -21.057251965800     19.151569747700      2.061549917640
     298  100  1   0.70000      3.267035794390      3.448955277290      1.875004392130
     299  100  2  -0.35000      2.113623727580      3.549700146020      1.803652618700
     300  100  2  -0.35000      4.420447861190      3.348210408570      1.946356165560
     301  101  1   0.70000     20.688833526700      0.998570533557    -19.825499734300
     302  101  2  -0.35000     21.093671722400      0.680342493099    -20.864940425000
     303  101  2  -0.35000     20.283995331000      1.316798574020    -18.786059043600
     304  102  1   0.70000    -10.003258096000      0.664207495730    -14.883271473000
     305  102  2  -0.35000    -10.024230914300      0.118747735005    -13.859731639700
     306  102  2  -0.35000     -9.982285277570      1.209667256450    -15.906811306300
     307  103  1   0.70000     -6.527105963340    -14.408830667600     16.922826959100
     308  103  2  -0.35000     -6.799323260280    -15.137289661400     16.062103288200
     309  103  2  -0.35000     -6.254888666400    -13.680371673700     17.783550629900
     310  104  1   0.70000     18.456687003500     -6.602344470110     -5.507786267320
     311  104  2  -0.35000     19.051761614900     -5.994554615950     -6.296505292100
     312  104  2  -0.35000     17.861612392100     -7.210134324270     -4.719067242530
     313  105  1   0.70000    -19.400514532800    -10.820643751500     11.940815390000
     314  105  2  -0.35000    -19.441880025400    -11.542012791300     12.848292995500
     315  105  2  -0.35000    -19.359149040100    -10.099274711700     11.033337784500
     316  106  1   0.70000     -2.196379776620    -20.476812029700    -16.324317639400
     317  106  2  -0.35000     -1.168862874460    -20.450109976700    -15.786641141700
     318  106  2  -0.35000     -3.223896678780    -20.503514082800    -16.861994137000
     319  107  1   0.70000      4.625721351420     12.226103712100      1.141164251520
     320  107  2  -0.35000      4.252057558160     13.313051854900      1.297750025260
     321  107  2  -0.35000      4.999385144680     11.139155569400      0.984578477774
     322  108  1   0.70000     12.748205322800    -12.852577280000      7.633455123450
     323  108  2  -0.35000     12.645009676500    -14.000749929100      7.762490879640
     324  108  2  -0.35000     12.851400969000    -11.704404630800      7.504419367250
     325  109  1   0.70000      4.462402661740     -2.539632121020     19.641618805300
     326  109  2  -0.35000      5.025354402970     -3.188292928140     18.861923676200
     327  109  2  -0.35000      3.899450920510     -1.890971313910     20.421313934400
     328  110  1   0.70000     14.858922714000      4.762849062590      7.321933551460
     329  110  2  -0.35000     15.443253336500      3.880918199550      6.846165040100
     330  110  2  -0.35000     14.274592091500      5.644779925620      7.797702062820
     331  111  1   0.70000    -20.769554484600      4.024986579560     -4.464776525830
     332  111  2  -0.35000    -20.088749180800      4.955338429960     -4.336131382960
     333  111  2  -0.35000    -21.450359788348      3.094634729170     -4.593421668700
     334  112  1   0.70000     -0.121459401302    -17.832625734400     -9.953659079740
     335  112  2  -0.35000      0.948128547043    -17.737741366700    -10.392496837400
     336  112  2  -0.35000     -1.191047349650    -17.927510102100     -9.514821322110
     337  113  1   0.70000      1.101759989410     17.757142719100     11.645064992800
     338  113  2  -0.35000      1.799276398420     16.835645636000     11.744633989500
     339  113  2  -0.35000      0.404243580390     18.678639802100     11.545495996100
     340  114  1   0.70000     -4.621327451660     -4.675546804350     18.507773758700