LAMMPS Atom File

         3000 atoms
         2000 bonds
         1000 angles
           0 dihedrals
           0 impropers

           2 atom types
           1 bond types
           1 angle types

         0.0  43.9951513432 xlo xhi
         0.0  43.9951513432 ylo yhi
         0.0  43.9951513432 zlo zhi

Masses

         1   12.01070
         2   15.99990

Atoms

       1    1  1   0.70000    -15.986738248000     14.848289642400    -21.109256288300
       2    1  2  -0.35000    -16.620894170800     15.474833910900    -20.367037624400
       3    1  2  -0.35000    -15.352582325200     14.221745373800    -21.851474952200
       4    2  1   0.70000      7.339393504350     17.521598427800      0.083742574211
       5    2  2  -0.35000      6.755203219480     16.924512449000     -0.721123902282
       6    2  2  -0.35000      7.923583789220     18.118684406600      0.888609050704
       7    3  1   0.70000      1.631081659650     11.003758012300    -19.125580143500
       8    3  2  -0.35000      1.614599573220     11.421010345200    -20.207813404700
       9    3  2  -0.35000      1.647563746090     10.586505679400    -18.043346882400
      10    4  1   0.70000    -20.113119667500     15.408944470600     -7.189530976250
      11    4  2  -0.35000    -19.823468352500     16.033331230200     -8.123256465990
      12    4  2  -0.35000    -20.402770982600     14.784557711000     -6.255805486520
      13    5  1   0.70000     11.675608780800      0.701966737393     -5.631013199400
      14    5  2  -0.35000     10.645485526200      0.230219452825     -5.879811470690
      15    5  2  -0.35000     12.705732035500      1.173714021960     -5.382214928110
      16    6  1   0.70000      3.125409082620    -16.889660621800     18.904177400800
      17    6  2  -0.35000      3.672210830970    -17.413413629200     18.025376720800
      18    6  2  -0.35000      2.578607334270    -16.365907614500     19.782978080900
      19    7  1   0.70000     -3.819757655740    -20.676789416200     -9.861606687880
      20    7  2  -0.35000     -4.416015965860    -21.371377822900     -9.149130040670
      21    7  2  -0.35000     -3.223499345620    -19.982201009400    -10.574083335100
      22    8  1   0.70000     -0.406312935937      1.749274102290     11.030798538800
      23    8  2  -0.35000      0.595572859218      1.170102777140     10.950889655700
      24    8  2  -0.35000     -1.408198731090      2.328445427440     11.110707421800
      25    9  1   0.70000     10.837478303500     -8.977274871210     19.579904146000
      26    9  2  -0.35000     10.963262609200     -9.780158561920     20.407645704400
      27    9  2  -0.35000     10.711693997900     -8.174391180490     18.752162587500
      28   10  1   0.70000    -10.086203269200     17.965638446100     -0.961341685266
      29   10  2  -0.35000    -11.115307418700     18.368645206900     -1.313662845920
      30   10  2  -0.35000     -9.057099119730     17.562631685200     -0.609020524607
      31   11  1   0.70000     -8.555290004660     13.389048127300      1.840093663210
      32   11  2  -0.35000     -8.052893979890     12.351473541200      1.969078982700
      33   11  2  -0.35000     -9.057686029440     14.426622713300      1.711108343720
      34   12  1   0.70000     13.403435023700     -1.404514216460      3.170795694090
      35   12  2  -0.35000     14.211474306900     -2.228500078970      3.053664079120
      36   12  2  -0.35000     12.595395740500     -0.580528353961      3.287927309060
      37   13  1   0.70000    -17.374859635500     -9.142552658540     16.786546246300
      38   13  2  -0.35000    -17.276087450300    -10.244224583400     17.136064522400
      39   13  2  -0.35000    -17.473631820700     -8.040880733650     16.437027970200
      40   14  1   0.70000     18.902824499600     12.072327542000    -14.840826932000
      41   14  2  -0.35000     19.501170225900     11.569901931300    -13.983417521200
      42   14  2  -0.35000     18.304478773300     12.574753152700    -15.698236342700
      43   15  1   0.70000     -6.007948209720     14.868119391000    -21.590887211600
      44   15  2  -0.35000     -6.237828026460     15.417533613200    -20.595447970700
      45   15  2  -0.35000     -5.778068392990     14.318705168800    -22.586326452561
      46   16  1   0.70000      0.591680682082    -21.877909627700     14.928975703900
      47   16  2  -0.35000      0.323830512032    -21.955677291900     16.054945719900
      48   16  2  -0.35000      0.859530852133    -21.800141963500     13.803005688000
      49   17  1   0.70000      0.880569814355     19.397930264300    -14.091156429400
      50   17  2  -0.35000      1.559795218850     20.197227479000    -14.586511668000
      51   17  2  -0.35000      0.201344409856     18.598633049700    -13.595801190700
      52   18  1   0.70000     18.711107784400      7.643651682600     18.839901667100
      53   18  2  -0.35000     18.017447548700      7.008038957650     18.161350312200
      54   18  2  -0.35000     19.404768020100      8.279264407550     19.518453022000
      55   19  1   0.70000    -11.886530166100    -18.588790923100      4.083772356070
      56   19  2  -0.35000    -12.356616301200    -18.720471313000      3.031498959770
      57   19  2  -0.35000    -11.416444031000    -18.457110533300      5.136045752370
      58   20  1   0.70000     -3.864847155560    -15.685013572900    -16.111410430400
      59   20  2  -0.35000     -3.689938698100    -14.543161047500    -16.005675659700
      60   20  2  -0.35000     -4.039755613030    -16.826866098300    -16.217145201100
      61   21  1   0.70000     -0.549959222729      5.171095194470     14.904106002200
      62   21  2  -0.35000     -0.174058866334      4.926651826890     15.973940738100
      63   21  2  -0.35000     -0.925859579125      5.415538562050     13.834271266300
      64   22  1   0.70000     -4.590000135690     -6.504345393300     -4.033029201030
      65   22  2  -0.35000     -4.492516929340     -5.671953963730     -4.835040131410
      66   22  2  -0.35000     -4.687483342040     -7.336736822880     -3.231018270650
      67   23  1   0.70000      4.601739549050     16.492084841800      2.849410164890
      68   23  2  -0.35000      4.307120523880     15.725762301600      3.668891338770
      69   23  2  -0.35000      4.896358574220     17.258407382000      2.029928991020
      70   24  1   0.70000     -8.341377360570      5.111170949390    -20.832536059700
      71   24  2  -0.35000     -7.484682351020      4.656696294110    -21.469031502200
      72   24  2  -0.35000     -9.198072370110      5.565645604670    -20.196040617200
      73   25  1   0.70000    -20.403348916900    -16.834982957200     17.033812485700
      74   25  2  -0.35000    -19.388472134600    -16.386497710000     17.372170431700
      75   25  2  -0.35000    -21.418225699300    -17.283468204400     16.695454539600
      76   26  1   0.70000     15.348577116900     -3.886432385930     -2.316462813900
      77   26  2  -0.35000     15.558879480600     -4.370792823570     -3.349307372520
      78   26  2  -0.35000     15.138274753200     -3.402071948290     -1.283618255290
      79   27  1   0.70000    -16.521269941300     15.953807231100     19.294653660300
      80   27  2  -0.35000    -16.828172391400     15.191636298000     20.113498184500
      81   27  2  -0.35000    -16.214367491100     16.715978164300     18.475809136200
      82   28  1   0.70000     -4.305228103550    -10.560487749900    -15.782157613600
      83   28  2  -0.35000     -5.149474181980    -11.096439194700    -15.194276156300
      84   28  2  -0.35000     -3.460982025110    -10.024536305100    -16.370039070900
      85   29  1   0.70000      6.995191634640    -17.302676260200    -18.921645225800
      86   29  2  -0.35000      6.502340271480    -16.351934090900    -19.367500428100
      87   29  2  -0.35000      7.488042997800    -18.253418429500    -18.475790023600
      88   30  1   0.70000    -17.267848358100     -5.311493891800    -16.449728459600
      89   30  2  -0.35000    -16.998171531800     -4.183748649550    -16.417092927800
      90   30  2  -0.35000    -17.537525184400     -6.439239134050    -16.482363991400
      91   31  1   0.70000     12.503829425800    -17.797846033000      2.991333094300
      92   31  2  -0.35000     13.153644296700    -17.568926228700      3.924572804570
      93   31  2  -0.35000     11.854014555000    -18.026765837300      2.058093384030
      94   32  1   0.70000      8.030723059090     20.445578887000    -15.835707993000
      95   32  2  -0.35000      8.921273969160     20.004293941800    -15.237555275200
      96   32  2  -0.35000      7.140172149020     20.886863832100    -16.433860710700
      97   33  1   0.70000      1.073426627760      6.721032978360    -13.998177014600
      98   33  2  -0.35000      1.148351992520      6.023099966700    -13.074664317900
      99   33  2  -0.35000      0.998501263003      7.418965990010    -14.921689711300
     100   34  1   0.70000     14.256214550900     20.983172812000     13.545287144300
     101   34  2  -0.35000     13.544192319900     20.569211592200     12.728427027100
     102   34  2  -0.35000     14.968236781900     21.397134031800     14.362147261500
     103   35  1   0.70000      0.466591498426    -20.592744722900     10.641365749600
     104   35  2  -0.35000      1.142661972750    -19.930365916000      9.970707095810
     105   35  2  -0.35000     -0.209478975894    -21.255123529800     11.312024403500
     106   36  1   0.70000      9.036508409740     -2.216946547750    -21.981826003400
     107   36  2  -0.35000      9.859840376380     -2.002387418840    -21.193353522600
     108   36  2  -0.35000      8.213176443090     -2.431505676660    -22.770298484161
     109   37  1   0.70000     -7.015725628930    -13.265359835400     -3.364978432420
     110   37  2  -0.35000     -6.118607229870    -12.715245153400     -3.852987053990
     111   37  2  -0.35000     -7.912844027990    -13.815474517400     -2.876969810840
     112   38  1   0.70000     20.899740660600    -21.821473000200      5.008612793870
     113   38  2  -0.35000     21.399937757100    -20.782372610900      4.883419960850
     114   38  2  -0.35000     20.399543564100    -22.860573389561      5.133805626890
     115   39  1   0.70000     16.068006122600     14.994228650700     -6.358635178620
     116   39  2  -0.35000     16.321602277400     16.082064619400     -6.045742392620
     117   39  2  -0.35000     15.814409967700     13.906392682000     -6.671527964610
     118   40  1   0.70000    -13.550965559300    -10.771925988600    -14.037399740900
     119   40  2  -0.35000    -12.998554142500    -11.371575563800    -13.212256108900
     120   40  2  -0.35000    -14.103376976200    -10.172276413500    -14.862543373000
     121   41  1   0.70000    -14.421558164300    -20.695793697700      4.666016136090
     122   41  2  -0.35000    -14.631782548500    -20.084600852300      5.629265332370
     123   41  2  -0.35000    -14.211333780100    -21.306986543000      3.702766939820
     124   42  1   0.70000     11.510726421200     -6.973821925970    -13.826575875600
     125   42  2  -0.35000     11.968253722700     -6.832999710190    -12.769959638700
     126   42  2  -0.35000     11.053199119700     -7.114644141750    -14.883192112400
     127   43  1   0.70000     19.583283081100      6.016852182930     -8.259741106820
     128   43  2  -0.35000     19.221234325800      7.011050262950     -7.784250963400
     129   43  2  -0.35000     19.945331836400      5.022654102910     -8.735231250240
     130   44  1   0.70000      0.289338182200      1.634716139380      1.233439035970
     131   44  2  -0.35000     -0.355228290261      0.722326814062      1.545976684300
     132   44  2  -0.35000      0.933904654660      2.547105464700      0.920901387640
     133   45  1   0.70000      7.964264988650     -7.767867889160      9.523934474860
     134   45  2  -0.35000      8.262630132760     -8.284603771500     10.518701919400
     135   45  2  -0.35000      7.665899844540     -7.251132006830      8.529167030330
     136   46  1   0.70000     16.270875816400      8.420305311950    -17.868216724100
     137   46  2  -0.35000     16.005247941000      7.809729352450    -18.818079255900
     138   46  2  -0.35000     16.536503691900      9.030881271450    -16.918354192200
     139   47  1   0.70000      5.243871920000    -17.327053833300    -21.796375095000
     140   47  2  -0.35000      4.512631061410    -18.018348510300    -21.219314893400
     141   47  2  -0.35000      5.975112778580    -16.635759156300    -22.373435296561
     142   48  1   0.70000      2.731054386270      6.059353706640    -18.453492815600
     143   48  2  -0.35000      2.021171364170      5.550313973510    -19.216738939100
     144   48  2  -0.35000      3.440937408360      6.568393439760    -17.690246692100
     145   49  1   0.70000    -16.684330303400      8.610789525260     14.250392505600
     146   49  2  -0.35000    -17.458426335300      9.471788832900     14.321494725600
     147   49  2  -0.35000    -15.910234271500      7.749790217610     14.179290285500
     148   50  1   0.70000      0.076818620981    -20.417825748100     -8.105835162640
     149   50  2  -0.35000     -0.809319255594    -20.866469501400     -8.705066709130
     150   50  2  -0.35000      0.962956497557    -19.969181994800     -7.506603616140
     151   51  1   0.70000    -15.484679858200      3.722403628140     -5.717762443370
     152   51  2  -0.35000    -16.332652058100      4.396383324860     -5.302678696840
     153   51  2  -0.35000    -14.636707658300      3.048423931420     -6.132846189910
     154   52  1   0.70000    -13.106041072200    -18.335409984100     -8.888996861000
     155   52  2  -0.35000    -13.857667103400    -17.635059226200     -8.350325230760
     156   52  2  -0.35000    -12.354415041100    -19.035760742000     -9.427668491250
     157   53  1   0.70000      1.631669936060    -20.625497131600    -20.543403865300
     158   53  2  -0.35000      0.624058634985    -20.506036206100    -21.105585822700
     159   53  2  -0.35000      2.639281237130    -20.744958057100    -19.981221907900
     160   54  1   0.70000     13.699418823800     -6.380106121000      5.531200337900
     161   54  2  -0.35000     13.412622376900     -7.280910326950      6.203435103880
     162   54  2  -0.35000     13.986215270700     -5.479301915040      4.858965571930
     163   55  1   0.70000     14.403980722300      5.900854988340    -11.953136913300
     164   55  2  -0.35000     13.622589040300      5.963415052980    -11.098085290600
     165   55  2  -0.35000     15.185372404400      5.838294923690    -12.808188536100
     166   56  1   0.70000     -9.102192414180     10.538535523000    -15.582956352700
     167   56  2  -0.35000     -8.540370624960      9.861636106930    -14.826805932600
     168   56  2  -0.35000     -9.664014203410     11.215434939000    -16.339106772700
     169   57  1   0.70000      1.694712300610     -9.797871072720     -0.383737620816
     170   57  2  -0.35000      2.768392071920     -9.668663370890      0.035925480343
     171   57  2  -0.35000      0.621032529307     -9.927078774560     -0.803400721975
     172   58  1   0.70000     -8.867961938530     12.541501357000     21.408552069200
     173   58  2  -0.35000     -9.739350325700     13.113229642100     20.899229924900
     174   58  2  -0.35000     -7.996573551360     11.969773071900     21.917874213500
     175   59  1   0.70000    -12.899893710000      4.845647839810    -11.963623274400
     176   59  2  -0.35000    -13.255980664500      4.038536390330    -12.716865060900
     177   59  2  -0.35000    -12.543806755600      5.652759289300    -11.210381487900
     178   60  1   0.70000     -4.956591108130      7.042148443540     19.700219179200
     179   60  2  -0.35000     -5.247243346330      6.635904734000     18.653277287400
     180   60  2  -0.35000     -4.665938869930      7.448392153080     20.747161071100
     181   61  1   0.70000     21.115417353200    -19.908502115700    -18.150446591200
     182   61  2  -0.35000     20.687008168600    -19.561688863000    -19.171125844700
     183   61  2  -0.35000     21.543826537700    -20.255315368400    -17.129767337800
     184   62  1   0.70000    -11.527571349600     13.520833609400      4.032984420150
     185   62  2  -0.35000    -12.185434563400     12.568566799100      4.110469346930
     186   62  2  -0.35000    -10.869708135800     14.473100419700      3.955499493370
     187   63  1   0.70000     -0.086283022938     -8.942906679000    -19.378883430700
     188   63  2  -0.35000      0.840300291855     -9.045426999060    -18.688569773900
     189   63  2  -0.35000     -1.012866337730     -8.840386358930    -20.069197087400
     190   64  1   0.70000      4.596317943130     10.065897580100    -16.423957217700
     191   64  2  -0.35000      4.112377803230     10.169177189100    -15.374797905100
     192   64  2  -0.35000      5.080258083020      9.962617970990    -17.473116530400
     193   65  1   0.70000     21.125809420800    -19.362416280000     -5.770912092280
     194   65  2  -0.35000     20.847312516600    -18.585539918200     -6.586082376830
     195   65  2  -0.35000     21.404306325100    -20.139292641800     -4.955741807730
     196   66  1   0.70000    -21.232931856400    -16.519605445200     21.128650380900
     197   66  2  -0.35000    -21.733951159500    -16.883274290600     22.109631842961
     198   66  2  -0.35000    -20.731912553400    -16.155936599900     20.147668918900
     199   67  1   0.70000      3.221940558520    -20.913956494100     -0.409167639438
     200   67  2  -0.35000      3.217926175030    -22.059323380061     -0.592793839315
     201   67  2  -0.35000      3.225954942010    -19.768589608200     -0.225541439560
     202   68  1   0.70000    -13.587466268400     -8.977080256780      1.868882007080
     203   68  2  -0.35000    -13.317259828200     -9.453703167810      0.846424633690
     204   68  2  -0.35000    -13.857672708500     -8.500457345750      2.891339380460
     205   69  1   0.70000     -8.307439350750     -8.744666770860      4.579434780160
     206   69  2  -0.35000     -7.308828680800     -9.199717270880      4.203528179680
     207   69  2  -0.35000     -9.306050020710     -8.289616270840      4.955341380640
     208   70  1   0.70000    -12.724715914900     -4.148121118120      8.585055759970
     209   70  2  -0.35000    -12.309515029500     -5.215029349620      8.771911453870
     210   70  2  -0.35000    -13.139916800200     -3.081212886630      8.398200066080
     211   71  1   0.70000    -19.196477641500     -8.092033317160     -3.453574074250
     212   71  2  -0.35000    -20.044734951200     -8.868925670790     -3.603566765380
     213   71  2  -0.35000    -18.348220331800     -7.315140963520     -3.303581383130
     214   72  1   0.70000    -14.431987802400      2.326005490910     16.456584660700
     215   72  2  -0.35000    -13.775712296700      2.844794345950     17.260176960700
     216   72  2  -0.35000    -15.088263308000      1.807216635870     15.652992360700
     217   73  1   0.70000     -9.776847050480    -16.467872339700      7.920592724480
     218   73  2  -0.35000    -10.544283761700    -15.934817915200      7.233210825640
     219   73  2  -0.35000     -9.009410339300    -17.000926764200      8.607974623330
     220   74  1   0.70000    -12.957134995200      7.268797410570     -7.600806321650
     221   74  2  -0.35000    -13.810270989900      6.691270775890     -7.067681607600
     222   74  2  -0.35000    -12.103999000400      7.846324045260     -8.133931035690
     223   75  1   0.70000     -4.020625892970    -11.146360353600      2.434921826290
     224   75  2  -0.35000     -3.428068914230    -10.808973103500      1.496494380810
     225   75  2  -0.35000     -4.613182871710    -11.483747603700      3.373349271760
     226   76  1   0.70000    -21.181652380500     -3.005447625470    -19.438497044400
     227   76  2  -0.35000    -21.273491013000     -2.076639819630    -20.127323383500
     228   76  2  -0.35000    -21.089813748000     -3.934255431310    -18.749670705400
     229   77  1   0.70000     14.644396659100      0.255011973130    -16.037470194700
     230   77  2  -0.35000     14.660460044900      1.175486798170    -16.743209568700
     231   77  2  -0.35000     14.628333273400     -0.665462851910    -15.331730820600
     232   78  1   0.70000     11.408345224900    -13.362316189700      1.227771488990
     233   78  2  -0.35000     10.316194554300    -12.973305620200      1.189330762190
     234   78  2  -0.35000     12.500495895500    -13.751326759300      1.266212215790
     235   79  1   0.70000     20.490229010700     15.208900378800      4.050259536220
     236   79  2  -0.35000     20.100068520900     16.237488052100      3.682316347040
     237   79  2  -0.35000     20.880389500400     14.180312705400      4.418202725390
     238   80  1   0.70000     15.104196597500     14.389290991900     18.575886410400
     239   80  2  -0.35000     15.195706270700     14.328509662100     17.421100019100
     240   80  2  -0.35000     15.012686924400     14.450072321800     19.730672801800
     241   81  1   0.70000    -17.887945005900     14.113740308700    -17.346196533400
     242   81  2  -0.35000    -17.577917234000     15.215145580100    -17.155436975700
     243   81  2  -0.35000    -18.197972777800     13.012335037300    -17.536956091000
     244   82  1   0.70000     -7.381524070060     -7.851421431910    -10.591034844500
     245   82  2  -0.35000     -8.011525292680     -7.530071970610    -11.510509141700
     246   82  2  -0.35000     -6.751522847440     -8.172770893210     -9.671560547340
     247   83  1   0.70000    -21.597483954800    -12.954125828500     13.292263676600
     248   83  2  -0.35000    -21.239755118200    -12.226393864400     12.462784160300
     249   83  2  -0.35000    -21.955212791300    -13.681857792600     14.121743192900
     250   84  1   0.70000     19.301246684300    -17.269660747400     20.003944064800
     251   84  2  -0.35000     19.514627972700    -17.347915293800     18.866427185000
     252   84  2  -0.35000     19.087865395800    -17.191406200900     21.141460944500
     253   85  1   0.70000      4.925804207050      7.962646003310      8.790921403570
     254   85  2  -0.35000      5.251007578040      8.542006413780      7.840035352420
     255   85  2  -0.35000      4.600600836070      7.383285592840      9.741807454730
     256   86  1   0.70000     17.792971190300      3.066655400190     20.612888075400
     257   86  2  -0.35000     18.778546692700      2.750230395720     21.136449099200
     258   86  2  -0.35000     16.807395688000      3.383080404670     20.089327051500
     259   87  1   0.70000    -14.296245221400      7.153101585670      9.174991400010
     260   87  2  -0.35000    -13.320335400500      7.328074918890      8.572841622830
     261   87  2  -0.35000    -15.272155042300      6.978128252450      9.777141177190
     262   88  1   0.70000     10.735594123700      8.327987247130    -21.714081070100
     263   88  2  -0.35000     11.440864344800      8.428246386340    -22.629582036861
     264   88  2  -0.35000     10.030323902600      8.227728107920    -20.798580103300
     265   89  1   0.70000      8.535158596520     20.967336041200     11.745654522100
     266   89  2  -0.35000      8.532722515940     21.464154717200     10.697434474200
     267   89  2  -0.35000      8.537594677110     20.470517365300     12.793874569900
     268   90  1   0.70000    -10.656015156200      4.023231722800      0.863899184880
     269   90  2  -0.35000    -10.736989528200      3.057405112630      1.501254745120
     270   90  2  -0.35000    -10.575040784300      4.989058332970      0.226543624642
     271   91  1   0.70000    -16.399991331200      4.601169167620    -10.916858910500
     272   91  2  -0.35000    -17.089327754300      4.284964379780    -11.794600232300
     273   91  2  -0.35000    -15.710654908100      4.917373955460    -10.039117588700
     274   92  1   0.70000      0.777545972894    -12.976690426000     18.835680773700
     275   92  2  -0.35000      0.515692881066    -12.360142055800     17.888632165900
     276   92  2  -0.35000      1.039399064720    -13.593238796100     19.782729381600
     277   93  1   0.70000     -6.626819166760    -19.790012255400     18.844049433400
     278   93  2  -0.35000     -6.572521122990    -20.007452061600     17.705905482400
     279   93  2  -0.35000     -6.681117210540    -19.572572449200     19.982193384300
     280   94  1   0.70000     20.694825518600     10.894666293000     -4.910708630970
     281   94  2  -0.35000     20.426737156600      9.872383258740     -4.432518262910
     282   94  2  -0.35000     20.962913880500     11.916949327200     -5.388898999030
     283   95  1   0.70000      9.024500489790    -15.416217634800    -12.871900446500
     284   95  2  -0.35000      8.059733475560    -16.048878393900    -12.751215020200
     285   95  2  -0.35000      9.989267504020    -14.783556875700    -12.992585872700
     286   96  1   0.70000     -6.162059811560      5.747244312780    -12.210536699900
     287   96  2  -0.35000     -6.650787155310      4.918337300660    -11.562725964600
     288   96  2  -0.35000     -5.673332467800      6.576151324900    -12.858347435200
     289   97  1   0.70000    -14.961629487500      2.761890723340      7.567172599700
     290   97  2  -0.35000    -15.134812656600      2.750415762360      6.420230615460
     291   97  2  -0.35000    -14.788446318400      2.773365684330      8.714114583950
     292   98  1   0.70000     -8.559486305310      4.636052560510      8.573406969110
     293   98  2  -0.35000     -8.874029087060      3.549571113700      8.830741195710
     294   98  2  -0.35000     -8.244943523560      5.722534007320      8.316072742500
     295   99  1   0.70000     19.355883591700     20.655923557300     -7.054900376610
     296   99  2  -0.35000     18.435035411900     20.627785652100     -7.759774044700
     297   99  2  -0.35000     20.276731771600     20.684061462600     -6.350026708510
     298  100  1   0.70000    -20.563158765500    -12.194145646600     17.717929791300
     299  100  2  -0.35000    -20.210600859300    -11.960213234300     18.798012449900
     300  100  2  -0.35000    -20.915716671600    -12.428078058900     16.637847132700
     301  101  1   0.70000    -14.720504604500     -9.951486093640     21.272882266300
     302  101  2  -0.35000    -14.440962399600    -10.284010110200     22.348467657661
     303  101  2  -0.35000    -15.000046809400     -9.618962077070     20.197296875000
     304  102  1   0.70000     20.260724407600    -12.413042732700     16.726852153800
     305  102  2  -0.35000     20.477273719300    -12.887184656600     17.763141607400
     306  102  2  -0.35000     20.044175096000    -11.938900808700     15.690562700200
     307  103  1   0.70000     15.250244901600    -20.788021279500      3.703013847350
     308  103  2  -0.35000     15.431851206000    -19.661153598000      3.909867367140
     309  103  2  -0.35000     15.068638597200    -21.914888961000      3.496160327570
     310  104  1   0.70000    -11.869528115700     -0.815184947359     12.021965323700
     311  104  2  -0.35000    -12.952736349700     -0.406656605920     12.095208179900
     312  104  2  -0.35000    -10.786319881600     -1.223713288800     11.948722467400
     313  105  1   0.70000      1.842890194600     -6.912732688400    -21.585277134900
     314  105  2  -0.35000      2.139458617210     -5.792557584140    -21.531845809800
     315  105  2  -0.35000      1.546321771980     -8.032907792670    -21.638708459900
     316  106  1   0.70000    -15.999150722300     18.020920567400    -15.941576003300
     317  106  2  -0.35000    -15.188371844500     17.280984661200    -16.316719263800
     318  106  2  -0.35000    -16.809929600200     18.760856473700    -15.566432742900
     319  107  1   0.70000     17.187374677700     20.073983450800    -10.670098205000
     320  107  2  -0.35000     16.885794986300     19.338561955300     -9.825228443610
     321  107  2  -0.35000     17.488954369100     20.809404946300    -11.514967966400
     322  108  1   0.70000    -21.067178135500    -18.281317293000     12.480269234000
     323  108  2  -0.35000    -21.451827286100    -18.518432391700     11.411895956100
     324  108  2  -0.35000    -20.682528984900    -18.044202194300     13.548642511900
     325  109  1   0.70000      8.067275699810     11.754559045700      2.111955045140
     326  109  2  -0.35000      8.884050505030     11.043599183200      1.696004337120
     327  109  2  -0.35000      7.250500894590     12.465518908100      2.527905753150
     328  110  1   0.70000     10.527941768200    -16.079393800300      8.886934784200
     329  110  2  -0.35000     10.357498022000    -15.589632545600      7.849301495050
     330  110  2  -0.35000     10.698385514300    -16.569155055100      9.924568073340
     331  111  1   0.70000      3.718790703120     -3.349934784560     21.573507331000
     332  111  2  -0.35000      2.753081557460     -3.230800925130     22.205023735761
     333  111  2  -0.35000      4.684499848770     -3.469068643990     20.941990926200
     334  112  1   0.70000     15.666814187300      5.557372860270      8.723616581290
     335  112  2  -0.35000     15.996858655300      6.195694301100      9.634229774300
     336  112  2  -0.35000     15.336769719200      4.919051419430      7.813003388290
     337  113  1   0.70000    -18.909573385700      3.312702742170     -2.749657556100
     338  113  2  -0.35000    -18.589480254100      4.314505301610     -3.239077640480
     339  113  2  -0.35000    -19.229666517300      2.310900182740     -2.260237471720
     340  114  1   0.70000     -1.677709361320     15.167211036600      8.434967702430