LAMMPS Atom File

         3000 atoms
         2000 bonds
         1000 angles
           0 dihedrals
           0 impropers

           2 atom types
           1 bond types
           1 angle types

         0.0  47.494040736 xlo xhi
         0.0  47.494040736 ylo yhi
         0.0  47.494040736 zlo zhi

Masses

         1   12.01070
         2   15.99990

Atoms

       1    1  1   0.70000     -9.341961075600     20.329854264100    -21.409289451800
       2    1  2  -0.35000     -8.983628534100     20.039093817000    -20.345026255000
       3    1  2  -0.35000     -9.700293617100     20.620614711300    -22.473552648600
       4    2  1   0.70000     21.233859843500      6.459096116130    -23.095096246800
       5    2  2  -0.35000     20.205811519600      6.167234329600    -22.643949550900
       6    2  2  -0.35000     22.261908167500      6.750957902650    -23.546242942600
       7    3  1   0.70000      8.234250513350     18.906859004600      2.915868771520
       8    3  2  -0.35000      7.157305716240     18.798974689400      2.498554886640
       9    3  2  -0.35000      9.311195310470     19.014743319700      3.333182656400
      10    4  1   0.70000     -1.515731983420     13.696251873000     22.844957230700
      11    4  2  -0.35000     -2.556832255390     13.244046484200     22.605749141300
      12    4  2  -0.35000     -0.474631711439     14.148457261900     23.084165320000
      13    5  1   0.70000    -20.168797514400     20.284972992600    -12.870567049400
      14    5  2  -0.35000    -19.658153030100     21.001841947400    -12.114960596000
      15    5  2  -0.35000    -20.679441998800     19.568104037900    -13.626173502700
      16    6  1   0.70000     11.046406081700     -1.382962394570     -3.695273283410
      17    6  2  -0.35000     11.733077787500     -2.089088723490     -4.308027374420
      18    6  2  -0.35000     10.359734375900     -0.676836065656     -3.082519192400
      19    7  1   0.70000      5.265438745330    -17.629876585300     17.261143721000
      20    7  2  -0.35000      4.193742899020    -17.632231252500     17.705060907600
      21    7  2  -0.35000      6.337134591640    -17.627521918000     16.817226534400
      22    8  1   0.70000     -8.823563651530    -23.487655985600     -8.894499369700
      23    8  2  -0.35000     -8.779816559400    -24.399061612534     -8.178241053780
      24    8  2  -0.35000     -8.867310743670    -22.576250358700     -9.610757685620
      25    9  1   0.70000     -1.613871491310      2.855449436390      8.000686800490
      26    9  2  -0.35000     -0.600702512416      3.411372886790      7.900498290660
      27    9  2  -0.35000     -2.627040470210      2.299525985990      8.100875310310
      28   10  1   0.70000      9.611494203440    -11.905669572600     22.203000950900
      29   10  2  -0.35000     10.588919842100    -12.202627127100     22.752596558400
      30   10  2  -0.35000      8.634068564830    -11.608712018100     21.653405343400
      31   11  1   0.70000    -11.221806460000     22.115692110600      1.826088514160
      32   11  2  -0.35000    -10.342374032000     21.426380966700      2.137615000060
      33   11  2  -0.35000    -12.101238888100     22.805003254500      1.514562028260
      34   12  1   0.70000    -10.101395231900     16.165025962600      4.343375073660
      35   12  2  -0.35000     -9.638942144530     15.906675804400      3.311390414040
      36   12  2  -0.35000    -10.563848319400     16.423376120800      5.375359733270
      37   13  1   0.70000      9.677159583640      2.578928559630      3.583768170320
      38   13  2  -0.35000      9.017952712670      2.024591720270      2.806750171940
      39   13  2  -0.35000     10.336366454600      3.133265398980      4.360786168700
      40   14  1   0.70000    -18.018389705800     -6.454422046910     21.718453813700
      41   14  2  -0.35000    -16.946673292300     -6.304826090860     21.300548347300
      42   14  2  -0.35000    -19.090106119400     -6.604018002950     22.136359280200
      43   15  1   0.70000     20.578335144000     10.721305984200    -15.441665827600
      44   15  2  -0.35000     21.536962585200     10.068199150900    -15.432452075400
      45   15  2  -0.35000     19.619707702800     11.374412817500    -15.450879579900
      46   16  1   0.70000    -10.860870848800     18.265606985900     20.337508628600
      47   16  2  -0.35000    -11.359549610300     19.222267687900     19.911222581300
      48   16  2  -0.35000    -10.362192087300     17.308946284000     20.763794675900
      49   17  1   0.70000     -3.025918499910     22.167530057400     14.170700132500
      50   17  2  -0.35000     -2.516807451750     23.161893571600     13.858214705200
      51   17  2  -0.35000     -3.535029548070     21.173166543200     14.483185559700
      52   18  1   0.70000      3.819793962220     19.126808725800    -17.714369890300
      53   18  2  -0.35000      3.807642470100     19.378878394400    -18.846585957800
      54   18  2  -0.35000      3.831945454340     18.874739057300    -16.582153822800
      55   19  1   0.70000     17.662668346500      6.501689780880     22.968067963800
      56   19  2  -0.35000     18.378927699000      5.642617632060     22.660549536500
      57   19  2  -0.35000     16.946408994100      7.360761929710     23.275586391200
      58   20  1   0.70000    -11.699928330000    -21.668516434100      6.580693157950
      59   20  2  -0.35000    -11.356912092300    -22.773656751000      6.499423602310
      60   20  2  -0.35000    -12.042944567600    -20.563376117200      6.661962713600
      61   21  1   0.70000     -2.049153163620    -17.992754594800    -23.162700431200
      62   21  2  -0.35000     -2.060688738290    -17.043347380900    -22.496297495500
      63   21  2  -0.35000     -2.037617588950    -18.942161808700    -23.829103366934
      64   22  1   0.70000     -2.470371329380     -0.536943542839     16.612504089500
      65   22  2  -0.35000     -3.594451859550     -0.479295090569     16.893074254700
      66   22  2  -0.35000     -1.346290799210     -0.594591995109     16.331933924200
      67   23  1   0.70000     -1.377716369770     -5.450561268440     -3.392696569920
      68   23  2  -0.35000     -0.463123045708     -5.697989641720     -4.061948579010
      69   23  2  -0.35000     -2.292309693840     -5.203132895160     -2.723444560830
      70   24  1   0.70000      6.554187665030     21.317839235500      4.901095963830
      71   24  2  -0.35000      5.419129425000     21.114772157100      4.774578955350
      72   24  2  -0.35000      7.689245905050     21.520906313900      5.027612972310
      73   25  1   0.70000     -9.901999544010      7.765041257280    -19.401192746700
      74   25  2  -0.35000     -8.910466819380      7.616612490260    -18.817727446100
      75   25  2  -0.35000    -10.893532268600      7.913470024300    -19.984658047400
      76   26  1   0.70000    -18.987612565200    -19.017281129000     16.753272497600
      77   26  2  -0.35000    -18.361857509200    -18.041290327700     16.714898474300
      78   26  2  -0.35000    -19.613367621300    -19.993271930200     16.791646520900
      79   27  1   0.70000     15.630899092000     -5.927582382230      2.114327597080
      80   27  2  -0.35000     16.471171716100     -5.128862634020      2.074469334560
      81   27  2  -0.35000     14.790626468000     -6.726302130450      2.154185859600
      82   28  1   0.70000     21.673821090900     22.487366421700    -20.438242524900
      83   28  2  -0.35000     22.774722387700     22.620496824300    -20.097812458000
      84   28  2  -0.35000     20.572919794000     22.354236019100    -20.778672591900
      85   29  1   0.70000     -7.475795777680    -14.691682651800    -18.903013397800
      86   29  2  -0.35000     -7.525092806320    -13.694800225600    -18.311916763400
      87   29  2  -0.35000     -7.426498749050    -15.688565078000    -19.494110032200
      88   30  1   0.70000      5.474182876600    -15.311527472400    -15.543623461500
      89   30  2  -0.35000      4.635121558200    -14.537949762200    -15.751357980100
      90   30  2  -0.35000      6.313244194990    -16.085105182700    -15.335888943000
      91   31  1   0.70000    -19.919624617500     -9.918704077680    -13.054800239000
      92   31  2  -0.35000    -19.529610137900    -10.394697849300    -12.071480029100
      93   31  2  -0.35000    -20.309639097200     -9.442710306040    -14.038120448800
      94   32  1   0.70000     13.436118480000    -17.519287854200      0.633289801197
      95   32  2  -0.35000     14.306561524800    -18.254140125500      0.852198560666
      96   32  2  -0.35000     12.565675435100    -16.784435582900      0.414381041727
      97   33  1   0.70000      4.260617208520     21.441116950900    -13.463920897400
      98   33  2  -0.35000      4.765449450050     20.669212992800    -14.167418365400
      99   33  2  -0.35000      3.755784966990     22.213020909000    -12.760423429500
     100   34  1   0.70000      2.992798781030      8.222093744760    -16.142390369100
     101   34  2  -0.35000      2.286953397010      7.400593937610    -15.727034665200
     102   34  2  -0.35000      3.698644165050      9.043593551920    -16.557746072900
     103   35  1   0.70000     11.660817034600     18.859511857400     21.894809343800
     104   35  2  -0.35000     10.638734785100     18.702638312100     21.369130196300
     105   35  2  -0.35000     12.682899284100     19.016385402700     22.420488491200
     106   36  1   0.70000     -0.405168353118    -21.457865861000     12.788838564700
     107   36  2  -0.35000      0.261674429807    -20.601819788600     13.198845668100
     108   36  2  -0.35000     -1.072011136040    -22.313911933400     12.378831461300
     109   37  1   0.70000     12.604051585500     -4.023171192840    -18.952545540500
     110   37  2  -0.35000     11.811165066900     -3.580201945780    -19.674147380000
     111   37  2  -0.35000     13.396938104100     -4.466140439900    -18.230943701000
     112   38  1   0.70000     -7.161835578150    -13.003797453800     -6.859116820360
     113   38  2  -0.35000     -7.872314450640    -12.092648732700     -6.962207944600
     114   38  2  -0.35000     -6.451356705660    -13.914946174800     -6.756025696120
     115   39  1   0.70000     15.477020194000    -20.821717118000      3.883801377300
     116   39  2  -0.35000     15.693382226500    -19.689158533700      4.010681336180
     117   39  2  -0.35000     15.260658161400    -21.954275702300      3.756921418420
     118   40  1   0.70000     16.670299297000     16.550282154200     -6.611175993380
     119   40  2  -0.35000     16.249015301700     16.810408587600     -7.660201271400
     120   40  2  -0.35000     17.091583292300     16.290155720800     -5.562150715360
     121   41  1   0.70000    -16.314145234400     -9.022140155650    -14.038934708900
     122   41  2  -0.35000    -17.294417739600     -8.929997612300    -13.425603177700
     123   41  2  -0.35000    -15.333872729100     -9.114282699000    -14.652266240100
     124   42  1   0.70000    -17.628576048500    -21.370828235100      4.648210168340
     125   42  2  -0.35000    -17.759172905100    -22.517606653500      4.532263110280
     126   42  2  -0.35000    -17.497979191900    -20.224049816800      4.764157226390
     127   43  1   0.70000      8.671879299920     -7.415894550790    -14.958561283300
     128   43  2  -0.35000      7.546203185510     -7.612616065120    -15.157945162400
     129   43  2  -0.35000      9.797555414340     -7.219173036460    -14.759177404300
     130   44  1   0.70000     20.534092268600      4.648821048520     -7.044154107060
     131   44  2  -0.35000     21.565168116700      4.748982462950     -6.522186400790
     132   44  2  -0.35000     19.503016420400      4.548659634090     -7.566121813340
     133   45  1   0.70000      8.244843735560     -8.930568472970      6.721019985430
     134   45  2  -0.35000      8.045699035800     -8.993830031810      5.579994410020
     135   45  2  -0.35000      8.443988435330     -8.867306914120      7.862045560830
     136   46  1   0.70000     20.188616402000     11.833206552500    -19.661499549400
     137   46  2  -0.35000     19.551433955200     10.867897909500    -19.573307977800
     138   46  2  -0.35000     20.825798848900     12.798515195500    -19.749691120900
     139   47  1   0.70000      6.962260079000    -15.380699327500     21.169520034300
     140   47  2  -0.35000      7.062660436340    -16.528721467000     21.036987262800
     141   47  2  -0.35000      6.861859721670    -14.232677188000     21.302052805800
     142   48  1   0.70000      2.832451949020      6.215055187310    -22.584743502800
     143   48  2  -0.35000      2.000043649790      6.360021774680    -21.789959814000
     144   48  2  -0.35000      3.664860248250      6.070088599930    -23.379527191500
     145   49  1   0.70000    -18.770151026100      7.778949695490      7.387848515630
     146   49  2  -0.35000    -18.661727593600      6.636481114460      7.218703900970
     147   49  2  -0.35000    -18.878574458600      8.921418276510      7.556993130290
     148   50  1   0.70000     -0.713541620741     19.742795615700    -13.550753338000
     149   50  2  -0.35000     -1.110060541230     20.645618758500    -12.939784338300
     150   50  2  -0.35000     -0.317022700255     18.839972472900    -14.161722337600
     151   51  1   0.70000    -15.949862163700      4.527869768210     -2.378482877400
     152   51  2  -0.35000    -15.332896876700      3.598361188150     -2.060728830630
     153   51  2  -0.35000    -16.566827450700      5.457378348260     -2.696236924160
     154   52  1   0.70000    -13.575183355500     23.512158072000     -4.789388952630
     155   52  2  -0.35000    -12.695208169800     22.816680190000     -4.493493382950
     156   52  2  -0.35000    -14.455158541300     24.207635954034     -5.085284522310
     157   53  1   0.70000      3.020832777220    -22.312765352400    -18.633484097200
     158   53  2  -0.35000      3.391941530460    -21.442378515100    -19.304531820300
     159   53  2  -0.35000      2.649724023970    -23.183152189700    -17.962436374100
     160   54  1   0.70000     18.476671627000     -9.839965644050      8.198316790740
     161   54  2  -0.35000     18.211600384400    -10.217784456900      7.134084588150
     162   54  2  -0.35000     18.741742869500     -9.462146831230      9.262548993340
     163   55  1   0.70000     16.511064314200     10.025254642900    -16.904173001500
     164   55  2  -0.35000     15.395642615800      9.796166566690    -16.682919553700
     165   55  2  -0.35000     17.626486012500     10.254342719100    -17.125426449300
     166   56  1   0.70000     -6.737564691290     11.446169354200    -17.835690225400
     167   56  2  -0.35000     -6.952632786060     10.703396988900    -16.971031374800
     168   56  2  -0.35000     -6.522496596520     12.188941719500    -18.700349076000
     169   57  1   0.70000      2.810997415860     -9.388329327250     -1.812885670550
     170   57  2  -0.35000      3.123766133080     -8.466819426360     -1.181541681820
     171   57  2  -0.35000      2.498228698640    -10.309839228100     -2.444229659270
     172   58  1   0.70000     -8.005454037850     12.425832897800    -22.769715353700
     173   58  2  -0.35000     -7.104971995630     12.200290177300    -22.074113044300
     174   58  2  -0.35000     -8.905936080080     12.651375618300    -23.465317663100
     175   59  1   0.70000    -12.078499531200     -1.377341945860    -16.512536353700
     176   59  2  -0.35000    -13.194812945100     -1.560192613360    -16.769460458100
     177   59  2  -0.35000    -10.962186117400     -1.194491278360    -16.255612249200
     178   60  1   0.70000     -1.613623380010     10.029830005600    -21.103633312700
     179   60  2  -0.35000     -2.289684900350     10.946547888100    -21.323108014500
     180   60  2  -0.35000     -0.937561859661      9.113112123200    -20.884158610900
     181   61  1   0.70000    -16.571249604200     21.635520894600    -20.446628151400
     182   61  2  -0.35000    -16.599909665900     21.889690255600    -19.315179285300
     183   61  2  -0.35000    -16.542589542400     21.381351533500    -21.578077017600
     184   62  1   0.70000    -14.646027855000      9.023366558070      8.522412544830
     185   62  2  -0.35000    -13.526004627400      8.725436574310      8.473568973060
     186   62  2  -0.35000    -15.766051082600      9.321296541820      8.571256116590
     187   63  1   0.70000     -0.838862501684    -11.323903093700    -21.607901648900
     188   63  2  -0.35000      0.123768400962    -10.885996668800    -21.131267923400
     189   63  2  -0.35000     -1.801493404330    -11.761809518600    -22.084535374500
     190   64  1   0.70000      1.849005112420     21.242484726800    -10.598295023700
     191   64  2  -0.35000      2.627287278720     20.391209232900    -10.721611296100
     192   64  2  -0.35000      1.070722946120     22.093760220800    -10.474978751400
     193   65  1   0.70000     23.579924854500     11.609122257600     -9.208723940440
     194   65  2  -0.35000     24.009638942834     11.772168634100    -10.273788108200
     195   65  2  -0.35000     23.150210766100     11.446075881200     -8.143659772700
     196   66  1   0.70000     22.767085566800     23.402375696300     -5.379139064120
     197   66  2  -0.35000     23.811398539334     23.190095034100     -5.837339168810
     198   66  2  -0.35000     21.722772594300     23.614656358500     -4.920938959420
     199   67  1   0.70000     -2.022541739460     10.154485416200      8.291126940190
     200   67  2  -0.35000     -1.333959310100      9.263639780000      8.570140005260
     201   67  2  -0.35000     -2.711124168820     11.045331052400      8.012113875120
     202   68  1   0.70000     23.432436996800    -23.316746890200     21.218793110700
     203   68  2  -0.35000     24.577926419134    -23.163085241700     21.318000373700
     204   68  2  -0.35000     22.286947574400    -23.470408538700     21.119585847700
     205   69  1   0.70000      5.687568041300    -18.243055602200      5.344592611730
     206   69  2  -0.35000      6.335655761260    -18.847505991100      4.596112795950
     207   69  2  -0.35000      5.039480321330    -17.638605213300      6.093072427510
     208   70  1   0.70000    -12.510003658500    -10.024380390500      3.239863161000
     209   70  2  -0.35000    -12.399542703900    -11.108984076900      2.843588986970
     210   70  2  -0.35000    -12.620464613000     -8.939776704130      3.636137335030
     211   71  1   0.70000    -10.819159661400    -11.403854176500      6.386577486940
     212   71  2  -0.35000    -10.508872903200    -10.355762366200      5.998214660550
     213   71  2  -0.35000    -11.129446419700    -12.451945986800      6.774940313330
     214   72  1   0.70000    -11.562028408300     -4.875237722540     13.790352024500
     215   72  2  -0.35000    -11.670280385600     -6.027704624760     13.714843424300
     216   72  2  -0.35000    -11.453776431100     -3.722770820320     13.865860624800
     217   73  1   0.70000    -17.936928756200     -8.095241061830     -5.732171123090
     218   73  2  -0.35000    -17.217568728000     -8.190845621920     -6.637146768010
     219   73  2  -0.35000    -18.656288784400     -7.999636501740     -4.827195478160
     220   74  1   0.70000    -21.303992340300      5.073404404410     19.492867077400
     221   74  2  -0.35000    -21.455029887100      5.442890668380     18.403707970500
     222   74  2  -0.35000    -21.152954793600      4.703918140440     20.582026184400
     223   75  1   0.70000    -12.007538430900    -22.755291871300      9.746461606980
     224   75  2  -0.35000    -13.026618590600    -23.164216813500      9.372488319350
     225   75  2  -0.35000    -10.988458271300    -22.346366929100     10.120434894600
     226   76  1   0.70000     -7.252252577410      5.749704237540     -8.453667257000
     227   76  2  -0.35000     -8.072078291710      5.315663430210     -7.757180088600
     228   76  2  -0.35000     -6.432426863120      6.183745044880     -9.150154425400
     229   77  1   0.70000     -2.143912848350    -12.877525591500      5.953175840040
     230   77  2  -0.35000     -1.655515940570    -13.924518220900      5.848893078180
     231   77  2  -0.35000     -2.632309756140    -11.830532962100      6.057458601900
     232   78  1   0.70000     22.456823490100     -5.270827903820     22.157335673800
     233   78  2  -0.35000     22.239940652800     -5.891407284720     21.201593518800
     234   78  2  -0.35000     22.673706327400     -4.650248522910     23.113077828800
     235   79  1   0.70000     21.815450247100      3.077078563640    -19.353186601800
     236   79  2  -0.35000     21.920068560600      3.524983455740    -20.418097967200
     237   79  2  -0.35000     21.710831933700      2.629173671530    -18.288275236400
     238   80  1   0.70000      9.998003721460    -14.213869240300      2.611759511040
     239   80  2  -0.35000      9.316779823750    -14.747641963000      1.839347262480
     240   80  2  -0.35000     10.679227619200    -13.680096517700      3.384171759600
     241   81  1   0.70000    -22.135553658500    -20.601022841500     13.970954134500
     242   81  2  -0.35000    -22.439145528500    -19.565645926900     13.545012094900
     243   81  2  -0.35000    -21.831961788500    -21.636399756100     14.396896174100
     244   82  1   0.70000     -5.984954699330      9.525536214380     -2.290274484770
     245   82  2  -0.35000     -5.830509602210      8.934750157020     -1.304009537410
     246   82  2  -0.35000     -6.139399796450     10.116322271700     -3.276539432140
     247   83  1   0.70000     18.768935652400     -0.736718653212     -6.668683695690
     248   83  2  -0.35000     19.345918321500     -0.035196993394     -5.947186391210
     249   83  2  -0.35000     18.191952983300     -1.438240313030     -7.390181000170
     250   84  1   0.70000      6.144842334300     20.496497285700      8.250182941960
     251   84  2  -0.35000      6.855174095160     19.649735883300      7.898012646620
     252   84  2  -0.35000      5.434510573440     21.343258688100      8.602353237300
     253   85  1   0.70000    -10.181668731000    -19.968482044200    -23.619062989400
     254   85  2  -0.35000    -10.234905328000    -19.005626162700    -22.974334817000
     255   85  2  -0.35000    -10.128432134000    -20.931337925600    -24.263791161834
     256   86  1   0.70000     12.636785805000      4.998928842560     -8.925993844720
     257   86  2  -0.35000     12.955364698100      5.449652335780     -7.905721419570
     258   86  2  -0.35000     12.318206911900      4.548205349340     -9.946266269880
     259   87  1   0.70000    -12.090713974500    -16.435718719800     -9.937314921810
     260   87  2  -0.35000    -12.940232043000    -15.729729013500     -9.583058537380
     261   87  2  -0.35000    -11.241195906100    -17.141708426100    -10.291571306200
     262   88  1   0.70000    -12.442356716100      6.838304332230     -5.022453806830
     263   88  2  -0.35000    -13.312633394900      6.278724140880     -4.497964996860
     264   88  2  -0.35000    -11.572080037300      7.397884523590     -5.546942616790
     265   89  1   0.70000     -9.017334461440     -7.546579780510     -9.405404876590
     266   89  2  -0.35000     -9.236649665070     -6.496886117540     -9.847721567860
     267   89  2  -0.35000     -8.798019257810     -8.596273443480     -8.963088185310
     268   90  1   0.70000    -17.993089344100      4.104020774410     -9.050192953630
     269   90  2  -0.35000    -17.875074359000      3.652709977990    -10.112262173700
     270   90  2  -0.35000    -18.111104329200      4.555331570830     -7.988123733510
     271   91  1   0.70000     -1.900597338420    -12.013337420200     22.010746014000
     272   91  2  -0.35000     -2.986484124610    -11.887979801100     21.622499500900
     273   91  2  -0.35000     -0.814710552230    -12.138695039200     22.398992527000
     274   92  1   0.70000     -8.804227539610    -16.186436727400     17.308749430600
     275   92  2  -0.35000     -8.256691571240    -15.892982609600     18.288386630800
     276   92  2  -0.35000     -9.351763507990    -16.479890845100     16.329112230300
     277   93  1   0.70000    -23.240739051900     13.661717854800     -4.010843239120
     278   93  2  -0.35000    -23.768634603534     14.150271989300     -3.100765690610
     279   93  2  -0.35000    -22.712843500400     13.173163720300     -4.920920787630
     280   94  1   0.70000     11.586454250700    -20.666665015500    -15.630499911800
     281   94  2  -0.35000     12.352032727900    -20.844385439400    -16.483673426500
     282   94  2  -0.35000     10.820875773600    -20.488944591700    -14.777326397100
     283   95  1   0.70000     -6.820090577560      9.133391125030    -11.913248981700
     284   95  2  -0.35000     -7.817572016680      9.534336621260    -11.477504231200
     285   95  2  -0.35000     -5.822609138430      8.732445628800    -12.348993732300
     286   96  1   0.70000     -1.578389452180     -9.903328357590    -11.061982843300
     287   96  2  -0.35000     -0.857471576853    -10.799487244200    -10.911063437700
     288   96  2  -0.35000     -2.299307327520     -9.007169470970    -11.212902248800
     289   97  1   0.70000     17.496105779000     -7.152400590460     -0.729922258017
     290   97  2  -0.35000     16.950431156400     -6.129350049470     -0.764661238147
     291   97  2  -0.35000     18.041780401700     -8.175451131440     -0.695183277888
     292   98  1   0.70000    -23.621073741700      4.611352194110     10.297724796600
     293   98  2  -0.35000    -22.547618000900      4.966003608250     10.037888026900
     294   98  2  -0.35000    -24.694529482534      4.256700779970     10.557561566400
     295   99  1   0.70000    -19.866671638200     23.025809822800     -0.256806415245
     296   99  2  -0.35000    -19.465545475500     22.482543119500      0.686357987563
     297   99  2  -0.35000    -20.267797800900     23.569076526100     -1.199970818050
     298  100  1   0.70000      6.632021875480      2.536131564760      6.800671336690
     299  100  2  -0.35000      7.525608902740      1.862200891520      6.495844053840
     300  100  2  -0.35000      5.738434848210      3.210062238000      7.105498619550
     301  101  1   0.70000     20.526070793300      3.480530448250    -23.725808892400
     302  101  2  -0.35000     21.536539956700      3.869451650630    -24.142092891834
     303  101  2  -0.35000     19.515601629900      3.091609245880    -23.309524893000
     304  102  1   0.70000    -15.807101943800     -2.487356349580    -15.268651501900
     305  102  2  -0.35000    -15.709293285100     -3.195602584540    -14.355185171400
     306  102  2  -0.35000    -15.904910602500     -1.779110114620    -16.182117832400
     307  103  1   0.70000    -10.343108966300    -12.421358869200     17.956305294600
     308  103  2  -0.35000    -10.423925579500    -11.855480088300     18.965686233700
     309  103  2  -0.35000    -10.262292353100    -12.987237650200     16.946924355400
     310  104  1   0.70000     16.825195959000      0.091715978632     -2.218036817000
     311  104  2  -0.35000     16.574426180100      0.769100679560     -3.125706627520
     312  104  2  -0.35000     17.075965737900     -0.585668722296     -1.310367006470
     313  105  1   0.70000     21.068190394900    -12.108786163500     14.421601000000
     314  105  2  -0.35000     20.579665681400    -12.417894503400     13.415919321500
     315  105  2  -0.35000     21.556715108300    -11.799677823500     15.427282678600
     316  106  1   0.70000     -3.817235514720    -19.909539575300    -19.662206133500
     317  106  2  -0.35000     -4.224127738460    -20.861902210300    -19.139669886300
     318  106  2  -0.35000     -3.410343290990    -18.957176940200    -20.184742380700
     319  107  1   0.70000      3.506748648840     14.819605077000     -1.043636281450
     320  107  2  -0.35000      3.642064509690     15.742707371500     -0.354309238762
     321  107  2  -0.35000      3.371432788000     13.896502782600     -1.732963324140
     322  108  1   0.70000     14.595222947900    -13.722721318500      7.548014566870
     323  108  2  -0.35000     13.572260586600    -13.332793957400      7.931556820790
     324  108  2  -0.35000     15.618185309100    -14.112648679500      7.164472312950
     325  109  1   0.70000      3.157659812530     -5.126617904510    -21.740821966900
     326  109  2  -0.35000      3.511898829170     -6.143010647390    -22.173326893200
     327  109  2  -0.35000      2.803420795900     -4.110225161620    -21.308317040500
     328  110  1   0.70000     18.287153713300      6.002053327430      8.124898022430
     329  110  2  -0.35000     19.024535500500      5.143909731570      7.869051058850
     330  110  2  -0.35000     17.549771926100      6.860196923280      8.380744986020
     331  111  1   0.70000    -22.536452543200      2.028218979210     -5.003773116340
     332  111  2  -0.35000    -23.374549160900      1.226955977150     -5.038002647790
     333  111  2  -0.35000    -21.698355925400      2.829481981270     -4.969543584890
     334  112  1   0.70000      0.631551237122    -14.087593470600    -12.608383852200
     335  112  2  -0.35000      1.762440804810    -13.886314627700    -12.770172643800
     336  112  2  -0.35000     -0.499338330571    -14.288872313500    -12.446595060600
     337  113  1   0.70000      1.302450159060     13.988827048100      9.647316183910
     338  113  2  -0.35000      1.447350460310     15.073356521900     10.032543030200
     339  113  2  -0.35000      1.157549857810     12.904297574300      9.262089337560
     340  114  1   0.70000     -2.703858492650     -7.926123349510     16.353571801000