LAMMPS Atom File

         3000 atoms
         2000 bonds
         1000 angles
           0 dihedrals
           0 impropers

           2 atom types
           1 bond types
           1 angle types

         0.0  41.3422141602 xlo xhi
         0.0  41.3422141602 ylo yhi
         0.0  41.3422141602 zlo zhi

Masses

         1   12.01070
         2   15.99990

Atoms

       1    1  1   0.70000    -15.210035820600     15.403166038000    -20.430639975700
       2    1  2  -0.35000    -15.896809158800     15.434167091900    -21.364974667616
       3    1  2  -0.35000    -14.523262482400     15.372164984100    -19.496305283700
       4    2  1   0.70000     20.453313202500     10.337524210700    -17.867868667500
       5    2  2  -0.35000     20.557007338800     10.563055640800    -19.000998448300
       6    2  2  -0.35000     20.349619066200     10.111992780600    -16.734738886700
       7    3  1   0.70000      4.120540169150     16.200607586000      0.018529442541
       8    3  2  -0.35000      3.620481774220     17.041042835200      0.642396570721
       9    3  2  -0.35000      4.620598564080     15.360172336800     -0.605337685640
      10    4  1   0.70000     -4.106905169230      7.458910485910    -19.599208627500
      11    4  2  -0.35000     -4.733475730560      6.552483711200    -19.961699777400
      12    4  2  -0.35000     -3.480334607910      8.365337260620    -19.236717477600
      13    5  1   0.70000    -16.213943431400     17.399067019300     -8.127207914830
      14    5  2  -0.35000    -17.285626447600     16.955512908000     -8.146056341150
      15    5  2  -0.35000    -15.142260415200     17.842621130500     -8.108359488520
      16    6  1   0.70000     12.150729305600     -3.585221049550     -6.011808293750
      17    6  2  -0.35000     11.048548998300     -3.225091741620     -6.045056628140
      18    6  2  -0.35000     13.252909612900     -3.945350357470     -5.978559959350
      19    7  1   0.70000      2.158833091620    -15.375264608500     19.891707454200
      20    7  2  -0.35000      1.731633727060    -15.633971169400     20.938689602216
      21    7  2  -0.35000      2.586032456180    -15.116558047600     18.844725306200
      22    8  1   0.70000     -4.467355805730    -19.736197872800     -7.423408661050
      23    8  2  -0.35000     -3.804396248300    -19.327141620400     -6.563898563630
      24    8  2  -0.35000     -5.130315363170    -20.145254125200     -8.282918758470
      25    9  1   0.70000      0.834607998764      2.127241438610      8.857784587080
      26    9  2  -0.35000     -0.007150783468      1.458247934650      9.293088899240
      27    9  2  -0.35000      1.676366781000      2.796234942580      8.422480274920
      28   10  1   0.70000     11.407885253200    -10.291709376000     17.054609787800
      29   10  2  -0.35000     12.232721223300    -10.769176508100     17.715874303800
      30   10  2  -0.35000     10.583049283100     -9.814242243930     16.393345271700
      31   11  1   0.70000     -5.584144932350     16.125430404300      1.169130876070
      32   11  2  -0.35000     -5.537452234680     15.982668559900      0.018896618290
      33   11  2  -0.35000     -5.630837630020     16.268192248700      2.319365133840
      34   12  1   0.70000    -10.247113620400     12.679316252600      1.737069016460
      35   12  2  -0.35000    -11.382346958700     12.611157832200      1.965541547150
      36   12  2  -0.35000     -9.111880282080     12.747474672900      1.508596485760
      37   13  1   0.70000     13.708353194400      3.331119111930      1.938150785190
      38   13  2  -0.35000     14.040114380300      2.606638460750      1.095142895790
      39   13  2  -0.35000     13.376592008500      4.055599763120      2.781158674600
      40   14  1   0.70000    -16.739403414600     -8.295047644680     16.324314956200
      41   14  2  -0.35000    -17.238082176200     -7.338386942700     15.898028908900
      42   14  2  -0.35000    -16.240724653100     -9.251708346650     16.750601003400
      43   15  1   0.70000     19.310095475400     11.750600802200     -9.930517266850
      44   15  2  -0.35000     18.558529731500     11.578654291300    -10.797225597300
      45   15  2  -0.35000     20.061661219200     11.922547313000     -9.063808936380
      46   16  1   0.70000     -9.605462813790     12.595731407100     14.736210398600
      47   16  2  -0.35000     -9.630248290860     12.116578828800     15.792334674900
      48   16  2  -0.35000     -9.580677336710     13.074883985300     13.680086122400
      49   17  1   0.70000     -1.887058473240     19.685862599900     12.430536051200
      50   17  2  -0.35000     -1.606852274110     18.805928861800     11.728538114900
      51   17  2  -0.35000     -2.167264672370     20.565796338000     13.132533987500
      52   18  1   0.70000      2.697687811570     17.079407876400    -15.807095593700
      53   18  2  -0.35000      3.131813462690     16.038107083600    -15.537229741900
      54   18  2  -0.35000      2.263562160450     18.120708669200    -16.076961445500
      55   19  1   0.70000     18.400323773800      6.155692239910     19.350566587900
      56   19  2  -0.35000     17.524965373500      5.516826355520     18.936805723600
      57   19  2  -0.35000     19.275682174100      6.794558124290     19.764327452100
      58   20  1   0.70000     -9.573727635500    -17.710273675200      5.036394784400
      59   20  2  -0.35000     -9.170829217620    -16.622521027700      5.028206823030
      60   20  2  -0.35000     -9.976626053390    -18.798026322700      5.044582745770
      61   21  1   0.70000     -3.469264924260    -18.183313889500    -19.495984056700
      62   21  2  -0.35000     -3.865890815270    -17.110987726400    -19.300013388800
      63   21  2  -0.35000     -3.072639033260    -19.255640052500    -19.691954724700
      64   22  1   0.70000     -2.508429298690      5.120755649400     14.205903590000
      65   22  2  -0.35000     -3.002453867130      5.905704118880     14.902606988900
      66   22  2  -0.35000     -2.014404730240      4.335807179910     13.509200191100
      67   23  1   0.70000     -2.548860445380      1.101894877420     -6.791387570120
      68   23  2  -0.35000     -3.220207976570      1.510277754950     -5.938090483700
      69   23  2  -0.35000     -1.877512914190      0.693511999884     -7.644684656550
      70   24  1   0.70000      7.018206199640     15.416074954500      4.268488386060
      71   24  2  -0.35000      7.449973420380     15.971526527500      3.346181161110
      72   24  2  -0.35000      6.586438978890     14.860623381600      5.190795611000
      73   25  1   0.70000     -7.343415075360     10.813463778900    -12.716403428000
      74   25  2  -0.35000     -7.778145242910     11.883341306200    -12.825818956800
      75   25  2  -0.35000     -6.908684907810      9.743586251570    -12.606987899200
      76   26  1   0.70000    -17.652889175900    -15.578034197900     13.545364283300
      77   26  2  -0.35000    -17.212357689100    -16.565541382900     13.125410037100
      78   26  2  -0.35000    -18.093420662600    -14.590527013000     13.965318529600
      79   27  1   0.70000     13.732876888700     -6.042700960110      1.279279607370
      80   27  2  -0.35000     13.607832988900     -7.123773641290      1.680833938880
      81   27  2  -0.35000     13.857920788500     -4.961628278940      0.877725275863
      82   28  1   0.70000    -18.612739259900     19.050306622300    -20.297309054800
      83   28  2  -0.35000    -19.544201946500     18.511475350800    -19.864136890100
      84   28  2  -0.35000    -17.681276573200     19.589137893900    -20.730481219516
      85   29  1   0.70000      9.210231464900    -16.077485011900    -19.988547347500
      86   29  2  -0.35000      8.326504785930    -16.818082251700    -20.115602002500
      87   29  2  -0.35000     10.093958143900    -15.336887772100    -19.861492692600
      88   30  1   0.70000    -13.315684680900     -7.427179444270    -11.994551209700
      89   30  2  -0.35000    -12.345565227200     -7.233189242830    -12.600221125800
      90   30  2  -0.35000    -14.285804134600     -7.621169645700    -11.388881293600
      91   31  1   0.70000     13.248563688900    -14.489718956000      4.169742311760
      92   31  2  -0.35000     12.257987923400    -15.068095243700      3.996998215990
      93   31  2  -0.35000     14.239139454500    -13.911342668400      4.342486407540
      94   32  1   0.70000     10.730608474400    -15.510541827200    -12.954160259400
      95   32  2  -0.35000     11.817091099400    -15.524469155300    -13.360314830000
      96   32  2  -0.35000      9.644125849450    -15.496614499000    -12.548005688900
      97   33  1   0.70000      2.857243194660      7.746824029690    -13.419260190000
      98   33  2  -0.35000      2.631821246770      7.147125018100    -12.452230696700
      99   33  2  -0.35000      3.082665142560      8.346523041280    -14.386289683300
     100   34  1   0.70000     13.771127661800    -19.462711970000     15.016236077500
     101   34  2  -0.35000     13.125423860500    -18.516586279400     15.199301034900
     102   34  2  -0.35000     14.416831463000    -20.408837660600     14.833171120100
     103   35  1   0.70000     -2.555347923970    -18.337274138800     10.990539195000
     104   35  2  -0.35000     -3.620271670690    -18.793350270900     11.049969620300
     105   35  2  -0.35000     -1.490424177240    -17.881198006800     10.931108769800
     106   36  1   0.70000      7.951146706630     -3.253643936550    -20.106491491300
     107   36  2  -0.35000      8.752211212440     -3.682043111370    -20.827858114116
     108   36  2  -0.35000      7.150082200820     -2.825244761740    -19.385124868400
     109   37  1   0.70000     -7.703128285260    -11.064745693400     -0.881693488628
     110   37  2  -0.35000     -8.847289014160    -10.993192616200     -0.704559687260
     111   37  2  -0.35000     -6.558967556360    -11.136298770600     -1.058827290000
     112   38  1   0.70000     15.731841087100     19.641023440100      8.215094314580
     113   38  2  -0.35000     16.539631068400     20.179904666600      7.580521726400
     114   38  2  -0.35000     14.924051105700     19.102142213500      8.849666902760
     115   39  1   0.70000     14.250388675400     14.324363801500     -6.043340255150
     116   39  2  -0.35000     14.095604812200     15.056686918100     -6.929537077870
     117   39  2  -0.35000     14.405172538600     13.592040684900     -5.157143432430
     118   40  1   0.70000    -14.582648733400    -13.042994297000    -11.292019154600
     119   40  2  -0.35000    -15.348365281700    -12.190751382600    -11.473568548100
     120   40  2  -0.35000    -13.816932185000    -13.895237211500    -11.110469761000
     121   41  1   0.70000    -14.666557192100    -18.790632950200      3.633392359140
     122   41  2  -0.35000    -15.372612663900    -18.136688256200      4.281035785750
     123   41  2  -0.35000    -13.960501720400    -19.444577644200      2.985748932540
     124   42  1   0.70000     10.965815435100     -8.925708593230    -13.397289025600
     125   42  2  -0.35000     10.942075583300     -8.704550532310    -14.535764116000
     126   42  2  -0.35000     10.989555286800     -9.146866654160    -12.258813935100
     127   43  1   0.70000    -20.418756144000      3.978913837070     -6.794129068700
     128   43  2  -0.35000    -21.554311756516      4.109162918510     -6.991989190440
     129   43  2  -0.35000    -19.283200531500      3.848664755630     -6.596268946950
     130   44  1   0.70000      0.625125539688      3.160073601980      2.023190540000
     131   44  2  -0.35000      1.595500266260      3.713502946020      2.335742697540
     132   44  2  -0.35000     -0.345249186884      2.606644257940      1.710638382460
     133   45  1   0.70000      9.101361253980    -11.785508705500      4.914836251750
     134   45  2  -0.35000      9.286179432880    -11.236914106500      5.920065681580
     135   45  2  -0.35000      8.916543075080    -12.334103304600      3.909606821920
     136   46  1   0.70000     15.750268971700     10.212788730300    -12.613787125600
     137   46  2  -0.35000     16.056428781300      9.115772417280    -12.833835711200
     138   46  2  -0.35000     15.444109162100     11.309805043300    -12.393738540100
     139   47  1   0.70000      6.137617360740    -13.040095721800     15.896164638600
     140   47  2  -0.35000      7.271455142980    -13.094641917700     15.657341281100
     141   47  2  -0.35000      5.003779578490    -12.985549526000     16.134987996100
     142   48  1   0.70000     -0.990005945902      2.692045061040     19.777739216900
     143   48  2  -0.35000     -1.764522580730      2.094269360110     19.154531230900
     144   48  2  -0.35000     -0.215489311070      3.289820761970     20.400947202800
     145   49  1   0.70000    -14.312416795800      6.673777241400     12.182751564400
     146   49  2  -0.35000    -13.248904845200      6.529714244570     12.622965357800
     147   49  2  -0.35000    -15.375928746300      6.817840238230     11.742537770900
     148   50  1   0.70000     -2.373433345970    -19.295587229200    -10.189728775500
     149   50  2  -0.35000     -2.720196685410    -18.323431218200    -10.719132096900
     150   50  2  -0.35000     -2.026670006530    -20.267743240300     -9.660325454180
     151   51  1   0.70000    -16.998374826700      3.941329530810     -5.290687631160
     152   51  2  -0.35000    -17.547308282100      4.425617855630     -4.390833820820
     153   51  2  -0.35000    -16.449441371300      3.457041205990     -6.190541441500
     154   52  1   0.70000    -13.839813478300    -18.427957583000     -5.235771211750
     155   52  2  -0.35000    -13.713454935300    -17.523690231500     -5.951266896980
     156   52  2  -0.35000    -13.966172021300    -19.332224934500     -4.520275526520
     157   53  1   0.70000      2.693644295740    -18.682531766100    -20.620706699000
     158   53  2  -0.35000      1.598157778680    -18.353600210700    -20.427540131500
     159   53  2  -0.35000      3.789130812800    -19.011463321500    -20.813873266516
     160   54  1   0.70000     12.282263108600     -6.852005297790     13.168425599100
     161   54  2  -0.35000     12.575142068300     -6.565448878960     14.253647850000
     162   54  2  -0.35000     11.989384149000     -7.138561716620     12.083203348200
     163   55  1   0.70000    -10.805266132200     12.769439601700    -19.952673349000
     164   55  2  -0.35000    -11.602200861200     11.927077108200    -19.922334146100
     165   55  2  -0.35000    -10.008331403200     13.611802095200    -19.983012552000
     166   56  1   0.70000      3.274595907510     -8.803144263980     -1.828184493140
     167   56  2  -0.35000      2.856803653390     -8.278619082980     -0.881652419252
     168   56  2  -0.35000      3.692388161640     -9.327669444980     -2.774716567020
     169   57  1   0.70000    -10.177702801000      9.215984934770     18.978109794400
     170   57  2  -0.35000     -9.899134017740      8.928420046390     17.889392260800
     171   57  2  -0.35000    -10.456271584300      9.503549823150     20.066827328000
     172   58  1   0.70000    -10.589571745400      2.617846947620    -11.892477697400
     173   58  2  -0.35000     -9.605378703060      2.190010629050    -11.452114052400
     174   58  2  -0.35000    -11.573764787800      3.045683266180    -12.332841342400
     175   59  1   0.70000     19.218695358200    -19.080517436600    -15.398569066800
     176   59  2  -0.35000     18.623994536000    -18.727919630300    -16.330022618500
     177   59  2  -0.35000     19.813396180400    -19.433115242900    -14.467115515100
     178   60  1   0.70000    -15.381387492000     13.776263859100      0.566047945197
     179   60  2  -0.35000    -14.622769520500     12.972530005000      0.213754509245
     180   60  2  -0.35000    -16.140005463500     14.579997713300      0.918341381149
     181   61  1   0.70000     -1.034633963680     -9.905263306720    -17.182622974600
     182   61  2  -0.35000     -2.071825808970     -9.906234581360    -16.663169287900
     183   61  2  -0.35000      0.002557881618     -9.904292032080    -17.702076661400
     184   62  1   0.70000      7.999053969150     17.840743174500    -12.279290357900
     185   62  2  -0.35000      8.424321144930     18.554789883800    -13.088540088400
     186   62  2  -0.35000      7.573786793370     17.126696465300    -11.470040627500
     187   63  1   0.70000    -19.789942288100      8.083319670940     -8.741857169440
     188   63  2  -0.35000    -20.879587933016      7.968117520370     -9.122646918330
     189   63  2  -0.35000    -18.700296643100      8.198521821500     -8.361067420540
     190   64  1   0.70000     18.443010116200     20.253081674300     -6.373836792000
     191   64  2  -0.35000     18.425158534100     21.159614477016     -5.650317892020
     192   64  2  -0.35000     18.460861698300     19.346548871600     -7.097355691970
     193   65  1   0.70000     -4.980007880910     15.260366381300      9.340855006630
     194   65  2  -0.35000     -5.622968204490     15.295986759900      8.376006204510
     195   65  2  -0.35000     -4.337047557340     15.224746002600     10.305703808700
     196   66  1   0.70000    -19.043051287500    -16.228531392200     18.457253962500
     197   66  2  -0.35000    -19.625735951800    -15.989308432600     19.431343772300
     198   66  2  -0.35000    -18.460366623100    -16.467754351800     17.483164152700
     199   67  1   0.70000      4.807274418240    -14.363408717000      4.019418484610
     200   67  2  -0.35000      4.316977554450    -13.329812180200      4.211478851290
     201   67  2  -0.35000      5.297571282030    -15.397005253800      3.827358117930
     202   68  1   0.70000    -12.573716470700    -10.539820332300     -2.775753440150
     203   68  2  -0.35000    -13.297291199800     -9.668012402660     -3.024732445880
     204   68  2  -0.35000    -11.850141741700    -11.411628262000     -2.526774434420
     205   69  1   0.70000     -8.098571798670     -4.279813992600      4.107540222780
     206   69  2  -0.35000     -8.576446239950     -3.369094595650      4.644034582840
     207   69  2  -0.35000     -7.620697357380     -5.190533389560      3.571045862720
     208   70  1   0.70000    -11.959438979200     -5.879235204720     10.576412924300
     209   70  2  -0.35000    -10.819137794100     -5.679718911340     10.650618422900
     210   70  2  -0.35000    -13.099740164300     -6.078751498100     10.502207425800
     211   71  1   0.70000    -16.917879494200     -6.397090578050     -5.965612642100
     212   71  2  -0.35000    -17.904559143100     -6.120536869550     -5.421938735450
     213   71  2  -0.35000    -15.931199845300     -6.673644286560     -6.509286548750
     214   72  1   0.70000    -18.454143482800      6.943032301750     17.734368631800
     215   72  2  -0.35000    -17.315951568900      7.146504758250     17.827739540100
     216   72  2  -0.35000    -19.592335396800      6.739559845250     17.640997723500
     217   73  1   0.70000     -9.852692020240      2.817017723130     -8.419753733900
     218   73  2  -0.35000     -8.796930900970      2.591124913550     -7.995559323710
     219   73  2  -0.35000    -10.908453139500      3.042910532710     -8.843948144080
     220   74  1   0.70000     -1.376445305720    -14.278428913000      8.396536507600
     221   74  2  -0.35000     -2.218431729470    -13.854906174300      7.720306256820
     222   74  2  -0.35000     -0.534458881965    -14.701951651600      9.072766758390
     223   75  1   0.70000     20.278453722800     -2.839346857510    -19.690741175200
     224   75  2  -0.35000     19.661899289500     -1.875752409090    -19.882955560200
     225   75  2  -0.35000     20.895008156016     -3.802941305930    -19.498526790100
     226   76  1   0.70000     19.214556916100      4.158909882750    -13.811942612400
     227   76  2  -0.35000     19.875649081000      4.963155902000    -13.300331930300
     228   76  2  -0.35000     18.553464751100      3.354663863500    -14.323553294400
     229   77  1   0.70000     11.918622346900     -9.563668800920     -0.901112280292
     230   77  2  -0.35000     13.017763641400     -9.549508229760     -1.271636089230
     231   77  2  -0.35000     10.819481052500     -9.577829372090     -0.530588471354
     232   78  1   0.70000     17.831801768000     15.385954505800      5.078662727140
     233   78  2  -0.35000     17.105749648800     15.863265041200      5.847182715870
     234   78  2  -0.35000     18.557853887100     14.908643970400      4.310142738400
     235   79  1   0.70000     11.299338281600     14.235516233600     14.215827424600
     236   79  2  -0.35000     11.263055249100     13.139481098800     13.837686545200
     237   79  2  -0.35000     11.335621314000     15.331551368500     14.593968304000
     238   80  1   0.70000    -13.578511730000     12.912449269500    -15.619121607300
     239   80  2  -0.35000    -12.420776686200     12.929518957300    -15.548707163000
     240   80  2  -0.35000    -14.736246773900     12.895379581600    -15.689536051600
     241   81  1   0.70000      9.765803063860    -19.617203300600     10.137010871900
     242   81  2  -0.35000      8.908615566520    -19.511950841800     10.911447127800
     243   81  2  -0.35000     10.622990561200    -19.722455759400      9.362574616110
     244   82  1   0.70000     -7.766970444610     -8.894679581560     -6.456593357920
     245   82  2  -0.35000     -7.759600421670     -9.102163132510     -7.597862939940
     246   82  2  -0.35000     -7.774340467540     -8.687196030610     -5.315323775900
     247   83  1   0.70000    -16.223205755100     -6.598354455260     10.128648650100
     248   83  2  -0.35000    -16.763027265900     -7.056558046650     11.047475187200
     249   83  2  -0.35000    -15.683384244300     -6.140150863870      9.209822113010
     250   84  1   0.70000     18.190731176200    -13.170238050600     17.664031215000
     251   84  2  -0.35000     18.479599052400    -12.085047319100     17.954748305200
     252   84  2  -0.35000     17.901863300000    -14.255428782000     17.373314124800
     253   85  1   0.70000      6.830614444190      9.919700404220      3.194015356700
     254   85  2  -0.35000      7.797554979040     10.505121775300      3.454606646590
     255   85  2  -0.35000      5.863673909340      9.334279033160      2.933424066810
     256   86  1   0.70000     14.069447223400      3.567922868380     18.820245142700
     257   86  2  -0.35000     13.760196911700      4.639692317760     18.502008607800
     258   86  2  -0.35000     14.378697535000      2.496153419000     19.138481677500
     259   87  1   0.70000      9.793125599050      6.512194590110     19.886861831800
     260   87  2  -0.35000      9.497412901860      5.426113321880     19.606537948600
     261   87  2  -0.35000     10.088838296200      7.598275858340     20.167185715100
     262   88  1   0.70000      9.292458171810     17.929531498500     16.270617380900
     263   88  2  -0.35000      8.533687357710     17.412502960700     15.561710939400
     264   88  2  -0.35000     10.051228985900     18.446560036300     16.979523822400
     265   89  1   0.70000     -8.174825278890     -1.842694592450     -0.981915460072
     266   89  2  -0.35000     -9.140005863380     -1.318272540440     -0.609077759885
     267   89  2  -0.35000     -7.209644694390     -2.367116644460     -1.354753160260
     268   90  1   0.70000    -13.699610458500      5.116202663380     -8.526967944600
     269   90  2  -0.35000    -13.755372753000      5.881996241130     -7.657456148940
     270   90  2  -0.35000    -13.643848164100      4.350409085630     -9.396479740250
     271   91  1   0.70000     -2.623086969840    -11.631543159100     19.094625592700
     272   91  2  -0.35000     -3.449490007250    -10.870600518400     18.805446898400
     273   91  2  -0.35000     -1.796683932420    -12.392485799900     19.383804287000
     274   92  1   0.70000     -6.755271697140    -15.791138343400     16.350659220000
     275   92  2  -0.35000     -6.897293413440    -16.910233710300     16.620946829700
     276   92  2  -0.35000     -6.613249980840    -14.672042976500     16.080371610300
     277   93  1   0.70000     20.327577187700     10.361927725100     -3.260339876190
     278   93  2  -0.35000     20.593363284500     11.471783162300     -3.052545123870
     279   93  2  -0.35000     20.061791090900      9.252072287780     -3.468134628520
     280   94  1   0.70000      5.742829132140    -15.804316202400    -14.692415607800
     281   94  2  -0.35000      5.929695421280    -15.968068335200    -13.559337398200
     282   94  2  -0.35000      5.555962843010    -15.640564069700    -15.825493817400
     283   95  1   0.70000     -4.251584208910      8.807598367390    -12.164162247700
     284   95  2  -0.35000     -4.453284001810      8.308788342840    -11.136492187300
     285   95  2  -0.35000     -4.049884416010      9.306408391940    -13.191832308000
     286   96  1   0.70000     -1.244204680070     -2.561596895220    -10.186261079300
     287   96  2  -0.35000     -0.140165116070     -2.809349072850     -9.930692107000
     288   96  2  -0.35000     -2.348244244070     -2.313844717590    -10.441830051600
     289   97  1   0.70000     12.643303515300     -1.164084438340      0.428015581058
     290   97  2  -0.35000     13.098484203700     -1.848861866830      1.246239520090
     291   97  2  -0.35000     12.188122827000     -0.479307009842     -0.390208357973
     292   98  1   0.70000     14.256378845200    -11.015364332900      1.064682013070
     293   98  2  -0.35000     14.917955621700    -10.584933144300      1.914767397440
     294   98  2  -0.35000     13.594802068700    -11.445795521400      0.214596628704
     295   99  1   0.70000     20.087652408300     10.239114169900      7.642616413570
     296   99  2  -0.35000     19.424915823300     10.024545071000      6.715071093600
     297   99  2  -0.35000     20.750388993416     10.453683268900      8.570161733550
     298  100  1   0.70000    -17.723750813600     18.944225829800     -0.245208534434
     299  100  2  -0.35000    -17.619770050100     20.067621679700     -0.514967251117
     300  100  2  -0.35000    -17.827731577200     17.820829979900      0.024550182249
     301  101  1   0.70000      4.442238286470     -0.273038459925     -0.597334218129
     302  101  2  -0.35000      5.242787350590      0.449163809849     -1.025288745470
     303  101  2  -0.35000      3.641689222350     -0.995240729698     -0.169379690790
     304  102  1   0.70000     17.920852645100     17.426183965000    -19.789029714400
     305  102  2  -0.35000     18.029409117500     17.698551432900    -18.666696673500
     306  102  2  -0.35000     17.812296172700     17.153816497000    -20.911362755316
     307  103  1   0.70000     16.590706666900      1.863614855530    -20.669780544900
     308  103  2  -0.35000     17.295349157600      2.256952440660    -21.503065912816
     309  103  2  -0.35000     15.886064176200      1.470277270390    -19.836495176900
     310  104  1   0.70000    -12.473413002900     -1.729516371760    -17.776178299700
     311  104  2  -0.35000    -12.799062067100     -1.747594372890    -16.662973074800
     312  104  2  -0.35000    -12.147763938700     -1.711438370620    -18.889383524700
     313  105  1   0.70000     -7.307921565360    -13.151286833600     20.579747249000
     314  105  2  -0.35000     -7.215195322920    -12.594299531500     19.566452134400
     315  105  2  -0.35000     -7.400647807800    -13.708274135600     21.593042363716
     316  106  1   0.70000     19.174471290200     -5.707875388550     -5.273680603620
     317  106  2  -0.35000     18.799170203300     -6.334595840640     -6.174774699170
     318  106  2  -0.35000     19.549772377200     -5.081154936460     -4.372586508070
     319  107  1   0.70000     17.255199517500    -15.398966565400      7.468234736400
     320  107  2  -0.35000     18.030531345200    -15.784275495000      6.696225937470
     321  107  2  -0.35000     16.479867689700    -15.013657635800      8.240243535340
     322  108  1   0.70000      1.960023106150    -15.172187873000    -16.045051270300
     323  108  2  -0.35000      1.187023885540    -15.415469131700    -16.875043098000
     324  108  2  -0.35000      2.733022326770    -14.928906614300    -15.215059442500
     325  109  1   0.70000    -12.045762172200     -6.586544969640     18.616716946100
     326  109  2  -0.35000    -12.999218913500     -6.138496786230     18.131152256400
     327  109  2  -0.35000    -11.092305430900     -7.034593153050     19.102281635700
     328  110  1   0.70000      4.749749063570     12.482538783500      1.228433498090
     329  110  2  -0.35000      4.655218786360     12.345899316100      0.080394438375
     330  110  2  -0.35000      4.844279340770     12.619178250900      2.376472557810
     331  111  1   0.70000     12.155851820700    -13.356505286400      7.616459584780
     332  111  2  -0.35000     12.616178285800    -14.278338051800      7.083614487060
     333  111  2  -0.35000     11.695525355700    -12.434672520900      8.149304682500
     334  112  1   0.70000      1.366323860820     -3.543133496730     19.571458913100
     335  112  2  -0.35000      1.624957289070     -4.632307009720     19.267469096800
     336  112  2  -0.35000      1.107690432580     -2.453959983730     19.875448729300
     337  113  1   0.70000     16.244278506700      4.890961741560      9.938610551830
     338  113  2  -0.35000     16.471040891300      5.961324278220     10.323971241400
     339  113  2  -0.35000     16.017516122100      3.820599204900      9.553249862300
     340  114  1   0.70000      0.015394018241    -14.152790044400    -12.252487956500