LAMMPS Atom File

         3000 atoms
         2000 bonds
         1000 angles
           0 dihedrals
           0 impropers

           2 atom types
           1 bond types
           1 angle types

         0.0  41.9458352838 xlo xhi
         0.0  41.9458352838 ylo yhi
         0.0  41.9458352838 zlo zhi

Masses

         1   12.01070
         2   15.99990

Atoms

       1    1  1   0.70000      4.059207338550     17.805792189300     -1.177481375750
       2    1  2  -0.35000      3.258194836150     18.601940661200     -0.912667135877
       3    1  2  -0.35000      4.860219840960     17.009643717300     -1.442295615630
       4    2  1   0.70000     -6.517439420690     10.255297603200    -17.095799867200
       5    2  2  -0.35000     -6.264067970700     10.574832563400    -16.009843920900
       6    2  2  -0.35000     -6.770810870690      9.935762642870    -18.181755813600
       7    3  1   0.70000    -20.636633770300     15.169479381400     -9.609634244520
       8    3  2  -0.35000    -19.606502683000     14.797948165800     -9.227018903950
       9    3  2  -0.35000    -21.666764857565     15.541010597100     -9.992249585090
      10    4  1   0.70000     10.368374063700     -1.368206170550     -5.097253333140
      11    4  2  -0.35000     10.376506433400     -0.828296774140     -6.123913797080
      12    4  2  -0.35000     10.360241694100     -1.908115566970     -4.070592869190
      13    5  1   0.70000      2.570227164070    -16.185954346600     17.324162285400
      14    5  2  -0.35000      3.195681679650    -15.209130439300     17.309272584500
      15    5  2  -0.35000      1.944772648500    -17.162778253800     17.339051986200
      16    6  1   0.70000     -7.532162561460    -20.933063689600     -6.369997330290
      17    6  2  -0.35000     -7.820111576320    -19.818003463600     -6.230979139510
      18    6  2  -0.35000     -7.244213546600    -22.048123915465     -6.509015521060
      19    7  1   0.70000     -1.484924257380      0.819682372114      8.868971123180
      20    7  2  -0.35000     -1.567549426850     -0.225417854928      9.365497655000
      21    7  2  -0.35000     -1.402299087900      1.864782599160      8.372444591350
      22    8  1   0.70000      9.539579972880    -12.450653359300     16.453753152400
      23    8  2  -0.35000      9.481790186440    -13.122018163600     17.397961625200
      24    8  2  -0.35000      9.597369759330    -11.779288555000     15.509544679600
      25    9  1   0.70000    -15.324635974400     19.493230580200      3.823382755060
      26    9  2  -0.35000    -15.296904760700     18.705152213800      4.674125647040
      27    9  2  -0.35000    -15.352367188100     20.281308946500      2.972639863090
      28   10  1   0.70000     -7.746289920140     11.739331203600      2.730236026120
      29   10  2  -0.35000     -8.082814892630     10.767139404400      2.194331138570
      30   10  2  -0.35000     -7.409764947640     12.711523002800      3.266140913660
      31   11  1   0.70000     11.898713555600      7.206785287100      1.765986926910
      32   11  2  -0.35000     12.068687459000      7.095974708660      0.623870519584
      33   11  2  -0.35000     11.728739652300      7.317595865550      2.908103334230
      34   12  1   0.70000    -15.686998134700    -10.112025131100     15.167816129300
      35   12  2  -0.35000    -15.808884234700     -9.467772666640     16.124729156000
      36   12  2  -0.35000    -15.565112034700    -10.756277595600     14.210903102600
      37   13  1   0.70000     20.893494345000     10.867469716100     -9.960285293020
      38   13  2  -0.35000     20.992266530265      9.765797791260     -9.610767016900
      39   13  2  -0.35000     20.794722159800     11.969141641000    -10.309803569100
      40   14  1   0.70000     -9.947130201990     13.690806630500     13.039487839700
      41   14  2  -0.35000     -9.659131955150     14.170542397900     12.023362550500
      42   14  2  -0.35000    -10.235128448800     13.211070863100     14.055613128900
      43   15  1   0.70000     -5.019626959340     15.483313697400     10.558158340600
      44   15  2  -0.35000     -5.082727242760     16.257394169700      9.696521655840
      45   15  2  -0.35000     -4.956526675910     14.709233225000     11.419795025500
      46   16  1   0.70000     -2.471383857350     17.786262597000    -18.545946283500
      47   16  2  -0.35000     -2.487996837880     18.019411463500    -17.409739605600
      48   16  2  -0.35000     -2.454770876830     17.553113730600    -19.682152961400
      49   17  1   0.70000     15.709327688000      5.326778356590     20.718370262600
      50   17  2  -0.35000     16.112169301700      5.062438005320     21.773568259565
      51   17  2  -0.35000     15.306486074200      5.591118707860     19.663172265500
      52   18  1   0.70000    -10.425099000300    -17.812577018900      5.335442138730
      53   18  2  -0.35000     -9.776370720950    -17.554996661100      6.261943071690
      54   18  2  -0.35000    -11.073827279700    -18.070157376800      4.408941205770
      55   19  1   0.70000     -1.775899272000    -15.342736311000     17.958071037800
      56   19  2  -0.35000     -2.584381825580    -14.784334650200     17.341513217400
      57   19  2  -0.35000     -0.967416718420    -15.901137971700     18.574628858200
      58   20  1   0.70000     -2.565839404060      4.335528213120     12.851771692900
      59   20  2  -0.35000     -2.525810527770      4.629087224770     11.730245591700
      60   20  2  -0.35000     -2.605868280340      4.041969201480     13.973297794200
      61   21  1   0.70000     -0.173051203664     -0.904223507904     -3.178210592610
      62   21  2  -0.35000     -1.149643818810     -0.766067450241     -3.788767525060
      63   21  2  -0.35000      0.803541411482     -1.042379565570     -2.567653660150
      64   22  1   0.70000      5.466469288800     15.842439470100      0.909504772692
      65   22  2  -0.35000      6.134242278110     15.124658460300      0.289448600476
      66   22  2  -0.35000      4.798696299490     16.560220479900      1.529560944910
      67   23  1   0.70000     -9.966532080520      9.723161689320    -12.494090072700
      68   23  2  -0.35000    -10.211743729000      8.824094881970    -13.184850612500
      69   23  2  -0.35000     -9.721320431990     10.622228496700    -11.803329532900
      70   24  1   0.70000    -20.110886325900    -15.453426440400     16.017357463900
      71   24  2  -0.35000    -19.573229301600    -15.566223682400     17.039023606300
      72   24  2  -0.35000    -20.648543350300    -15.340629198300     14.995691321600
      73   25  1   0.70000     11.131409183300     -6.871430414420     -3.124010641130
      74   25  2  -0.35000     10.753875961400     -6.765206934440     -2.032321473530
      75   25  2  -0.35000     11.508942405300     -6.977653894400     -4.215699808720
      76   26  1   0.70000    -19.489442177900     16.792151291600    -19.501253987200
      77   26  2  -0.35000    -20.553230553700     16.572228007000    -19.908179091200
      78   26  2  -0.35000    -18.425653802000     17.012074576200    -19.094328883100
      79   27  1   0.70000     -6.873944429000    -10.628807205000    -17.387619270000
      80   27  2  -0.35000     -7.991682837240    -10.338673214000    -17.277696032800
      81   27  2  -0.35000     -5.756206020770    -10.918941195900    -17.497542507100
      82   28  1   0.70000      9.916867937910    -17.731960547900    -20.310360769400
      83   28  2  -0.35000     10.084321184900    -17.444667572700    -19.199045262200
      84   28  2  -0.35000      9.749414690960    -18.019253523000    -21.421676276565
      85   29  1   0.70000    -19.338529560300     -9.128842262760    -11.904492410300
      86   29  2  -0.35000    -19.052499489600     -8.249071591230    -12.604342654400
      87   29  2  -0.35000    -19.624559631000    -10.008612934300    -11.204642166200
      88   30  1   0.70000     11.985849124600    -15.916475526800      3.186051495060
      89   30  2  -0.35000     11.974764523100    -14.788075648100      2.917367953720
      90   30  2  -0.35000     11.996933726200    -17.044875405500      3.454735036390
      91   31  1   0.70000      6.975697297910     19.994042412600     -9.623053184020
      92   31  2  -0.35000      6.868065905180     20.194656133300    -10.760493124600
      93   31  2  -0.35000      7.083328690630     19.793428692000     -8.485613243450
      94   32  1   0.70000      3.851991752620      8.839535445540    -16.231745612400
      95   32  2  -0.35000      4.025324227260      9.846573392300    -16.780772412300
      96   32  2  -0.35000      3.678659277970      7.832497498780    -15.682718812500
      97   33  1   0.70000     15.589717178500    -19.545284998300     17.363194306900
      98   33  2  -0.35000     16.067915018000    -18.585996055300     16.919695096000
      99   33  2  -0.35000     15.111519339000    -20.504573941400     17.806693517700
     100   34  1   0.70000     11.253056949300     -6.725396392270    -15.026245015300
     101   34  2  -0.35000     11.929291084200     -5.784315101260    -15.077949932200
     102   34  2  -0.35000     10.576822814300     -7.666477683290    -14.974540098300
     103   35  1   0.70000     -7.597452117600    -10.013053378200     -3.598240301590
     104   35  2  -0.35000     -6.665867274280    -10.373025209100     -4.188299587320
     105   35  2  -0.35000     -8.529036960920     -9.653081547330     -3.008181015860
     106   36  1   0.70000     13.706495899700    -19.383253621100      6.979674107270
     107   36  2  -0.35000     12.787339338600    -18.708377502100      6.766851551590
     108   36  2  -0.35000     14.625652460800    -20.058129740100      7.192496662940
     109   37  1   0.70000     15.500813400400     15.356035642100     -7.845238036220
     110   37  2  -0.35000     16.263441097300     16.192264101700     -8.099641179450
     111   37  2  -0.35000     14.738185703500     14.519807182500     -7.590834893000
     112   38  1   0.70000    -10.923706137800    -10.599045470500    -11.847923815800
     113   38  2  -0.35000    -11.899239241800    -11.029081737200    -12.305093338400
     114   38  2  -0.35000     -9.948173033850    -10.169009203800    -11.390754293300
     115   39  1   0.70000    -14.251811733800    -18.985795994700      4.330546244740
     116   39  2  -0.35000    -14.476825044200    -19.899468996400      5.008905040670
     117   39  2  -0.35000    -14.026798423500    -18.072122992900      3.652187448810
     118   40  1   0.70000     13.794812004600     -8.343451982370    -10.955515790300
     119   40  2  -0.35000     14.255619347300     -7.329032707660    -10.632699855100
     120   40  2  -0.35000     13.334004662000     -9.357871257080    -11.278331725500
     121   41  1   0.70000     15.674593871800      5.938281265190    -12.369524551500
     122   41  2  -0.35000     15.079371792900      4.955679224290    -12.530160494100
     123   41  2  -0.35000     16.269815950600      6.920883306090    -12.208888608900
     124   42  1   0.70000      0.739742382466      0.698219837836      2.407459766940
     125   42  2  -0.35000     -0.360767449146      0.883205137937      2.724096071350
     126   42  2  -0.35000      1.840252214080      0.513234537735      2.090823462530
     127   43  1   0.70000     16.540543244900      8.834507015140    -14.085594807400
     128   43  2  -0.35000     17.667677787400      8.956867052550    -13.840246596800
     129   43  2  -0.35000     15.413408702500      8.712146977740    -14.330943017900
     130   44  1   0.70000      6.392133237310    -12.164650161400     14.956615153500
     131   44  2  -0.35000      5.747566764850    -13.077039486700     15.269152801800
     132   44  2  -0.35000      7.036699709770    -11.252260836100     14.644077505100
     133   45  1   0.70000     -1.056462738940      3.215395850420     20.033482682600
     134   45  2  -0.35000     -2.199349680840      3.185488903130     20.229735103100
     135   45  2  -0.35000      0.086424202961      3.245302797710     19.837230262100
     136   46  1   0.70000    -14.540998596700      6.768365325030     12.358425162400
     137   46  2  -0.35000    -13.734072436900      6.108293602800     12.867124969900
     138   46  2  -0.35000    -15.347924756500      7.428437047250     11.849725354900
     139   47  1   0.70000     -1.538256972320    -19.067057614300    -11.187092317300
     140   47  2  -0.35000     -1.763805390520    -18.001460841600    -11.586130447100
     141   47  2  -0.35000     -1.312708554120    -20.132654387000    -10.788054187400
     142   48  1   0.70000    -16.129341117500      5.371076694700     -2.757730139830
     143   48  2  -0.35000    -15.591566737400      6.078082529500     -2.011713071820
     144   48  2  -0.35000    -16.667115497500      4.664070859890     -3.503747207830
     145   49  1   0.70000    -16.832645990800     16.915374672100     -5.910821022160
     146   49  2  -0.35000    -17.642936782900     16.808932927000     -6.734045771030
     147   49  2  -0.35000    -16.022355198700     17.021816417100     -5.087596273290
     148   50  1   0.70000      0.705252633442    -18.176589851900     20.498705728900
     149   50  2  -0.35000      0.287439310742    -18.745753078000     19.578333386100
     150   50  2  -0.35000      1.123065956140    -17.607426625800     21.419078071765
     151   51  1   0.70000     19.756649979700     -7.908531615180      7.979236905650
     152   51  2  -0.35000     20.660768075100     -8.446193528530      8.468205346700
     153   51  2  -0.35000     18.852531884200     -7.370869701840      7.490268464600
     154   52  1   0.70000    -12.556253483100      6.532343306450    -17.798460336300
     155   52  2  -0.35000    -12.644691281300      6.611435563630    -16.644543887500
     156   52  2  -0.35000    -12.467815684900      6.453251049270    -18.952376785000
     157   53  1   0.70000      2.902650140210     -8.125822541890     -1.795280168080
     158   53  2  -0.35000      3.024857090620     -7.023993487610     -1.453756821260
     159   53  2  -0.35000      2.780443189790     -9.227651596170     -2.136803514900
     160   54  1   0.70000     -5.768953537100     14.505663458700    -20.591823085300
     161   54  2  -0.35000     -4.758095362660     14.559497223600    -20.025371254200
     162   54  2  -0.35000     -6.779811711530     14.451829693800    -21.158274916365
     163   55  1   0.70000     -9.821918734580     -0.412104680442    -11.280846897200
     164   55  2  -0.35000    -10.547446429100     -0.519074933671    -10.382088348200
     165   55  2  -0.35000     -9.096391040080     -0.305134427213    -12.179605446200
     166   56  1   0.70000    -20.499366789700     19.985241844300    -19.568163125900
     167   56  2  -0.35000    -20.242912883600     19.104193213900    -20.277800149300
     168   56  2  -0.35000    -20.755820695800     20.866290474700    -18.858526102600
     169   57  1   0.70000    -10.747454031000     12.090934051700      2.425482516040
     170   57  2  -0.35000    -10.486562740900     13.157913514200      2.052534045930
     171   57  2  -0.35000    -11.008345321000     11.023954589100      2.798430986150
     172   58  1   0.70000      2.954177231090     -3.826563827870    -20.580405586600
     173   58  2  -0.35000      3.725876321950     -3.253852379950    -21.230084053665
     174   58  2  -0.35000      2.182478140220     -4.399275275790    -19.930727119600
     175   59  1   0.70000     16.089728139400     17.435991640000    -11.119983005400
     176   59  2  -0.35000     17.217207684400     17.381624187400    -10.852711503300
     177   59  2  -0.35000     14.962248594500     17.490359092600    -11.387254507500
     178   60  1   0.70000    -17.518077257200      7.497492044590     -9.391567994660
     179   60  2  -0.35000    -17.077634171000      6.436952998180     -9.227656985730
     180   60  2  -0.35000    -17.958520343500      8.558031091000     -9.555479003600
     181   61  1   0.70000     18.742210474600     20.587118989800     -6.488067890030
     182   61  2  -0.35000     19.103005101300     21.256552877665     -5.612119542750
     183   61  2  -0.35000     18.381415847900     19.917685101900     -7.364016237300
     184   62  1   0.70000     -4.911521222630     11.514734981700      5.541959094060
     185   62  2  -0.35000     -4.818670460220     10.791004788100      6.443731428280
     186   62  2  -0.35000     -5.004371985040     12.238465175400      4.640186759840
     187   63  1   0.70000    -20.062181709000    -15.639380277300     20.238023661100
     188   63  2  -0.35000    -20.856214303400    -16.282283921300     19.688672094600
     189   63  2  -0.35000    -19.268149114600    -14.996476633400     20.787375227600
     190   64  1   0.70000      6.182083116640    -14.210362687900      1.820590683750
     191   64  2  -0.35000      6.781142700020    -15.085497149500      1.350625483220
     192   64  2  -0.35000      5.583023533260    -13.335228226400      2.290555884280
     193   65  1   0.70000    -14.028152748500     -9.694318118570      1.038230411100
     194   65  2  -0.35000    -12.932939351300     -9.314019964360      0.999747575818
     195   65  2  -0.35000    -15.123366145600    -10.074616272800      1.076713246370
     196   66  1   0.70000     -7.055125787820     -7.836667742350      4.309143227460
     197   66  2  -0.35000     -6.234784899140     -7.696645290450      5.117248752320
     198   66  2  -0.35000     -7.875466676500     -7.976690194260      3.501037702590
     199   67  1   0.70000    -12.791416982500     -4.963469252590      9.857481798420
     200   67  2  -0.35000    -13.137796757300     -4.069889122880     10.511037919500
     201   67  2  -0.35000    -12.445037207800     -5.857049382290      9.203925677310
     202   68  1   0.70000    -17.268309774800     -6.291645163020     -7.321028391630
     203   68  2  -0.35000    -17.684317055500     -5.739641301460     -8.252602156420
     204   68  2  -0.35000    -16.852302494100     -6.843649024580     -6.389454626840
     205   69  1   0.70000    -12.216844170800     -2.238824907870     15.563246003500
     206   69  2  -0.35000    -11.247484624600     -2.865321345950     15.447296517000
     207   69  2  -0.35000    -13.186203716900     -1.612328469790     15.679195490000
     208   70  1   0.70000     -6.897022331130    -15.347799462200      9.301982912760
     209   70  2  -0.35000     -7.175994415920    -14.260041546400      9.011195546400
     210   70  2  -0.35000     -6.618050246340    -16.435557378100      9.592770279110
     211   71  1   0.70000     -8.218534038720      4.311146130840     -7.799069444570
     212   71  2  -0.35000     -9.155107961680      3.895226030170     -7.255525741910
     213   71  2  -0.35000     -7.281960115760      4.727066231510     -8.342613147220
     214   72  1   0.70000     -3.859397553110    -17.648529631200      6.200358693850
     215   72  2  -0.35000     -3.200931945870    -17.407834141300      7.124527901990
     216   72  2  -0.35000     -4.517863160350    -17.889225121000      5.276189485720
     217   73  1   0.70000    -19.841860138900     -4.382149547780     19.521218130700
     218   73  2  -0.35000    -20.303485339800     -4.636518356990     18.487874682100
     219   73  2  -0.35000    -19.380234938100     -4.127780738570     20.554561579400
     220   74  1   0.70000     20.043453980400      5.299733318630    -18.063579118100
     221   74  2  -0.35000     18.893846856800      5.366590174970    -18.203341853100
     222   74  2  -0.35000     21.193061103965      5.232876462290    -17.923816383000
     223   75  1   0.70000     11.693318016300    -12.121793750800      0.955009277035
     224   75  2  -0.35000     12.007373288900    -11.305200855600      1.716681994980
     225   75  2  -0.35000     11.379262743800    -12.938386646000      0.193336559093
     226   76  1   0.70000     16.217779151500     13.314740924300      5.406564126970
     227   76  2  -0.35000     15.617968545600     12.400944720500      5.018229561060
     228   76  2  -0.35000     16.817589757300     14.228537128100      5.794898692890
     229   77  1   0.70000     10.605358398000     14.723113162800     15.947545916700
     230   77  2  -0.35000      9.551654427040     15.059923477900     15.598451727100
     231   77  2  -0.35000     11.659062368900     14.386302847700     16.296640106400
     232   78  1   0.70000    -12.363377371500     11.884865902100    -15.084003852300
     233   78  2  -0.35000    -12.599070718400     12.474417266800    -16.054816828300
     234   78  2  -0.35000    -12.127684024700     11.295314537300    -14.113190876200
     235   79  1   0.70000     12.020272829400    -17.078607750500     12.038285122300
     236   79  2  -0.35000     11.101822192000    -17.608086658500     11.567434283200
     237   79  2  -0.35000     12.938723466900    -16.549128842600     12.509135961400
     238   80  1   0.70000     -8.196169804870     -7.643713392490     -7.618898705620
     239   80  2  -0.35000     -7.663859889050     -6.666375886970     -7.291702199180
     240   80  2  -0.35000     -8.728479720690     -8.621050898010     -7.946095212070
     241   81  1   0.70000    -19.237008832200     -6.374188937880      9.362012483810
     242   81  2  -0.35000    -20.213524558400     -5.844980678350      9.027414733670
     243   81  2  -0.35000    -18.260493105900     -6.903397197420      9.696610233940
     244   82  1   0.70000     16.571670503900    -12.815528338900     18.935460731400
     245   82  2  -0.35000     17.198857301800    -13.790239534000     18.982095555000
     246   82  2  -0.35000     15.944483706000    -11.840817143900     18.888825907700
     247   83  1   0.70000      7.979627397910      9.811609003370      8.428737885710
     248   83  2  -0.35000      7.541683986900     10.677019746200      9.065031697540
     249   83  2  -0.35000      8.417570808920      8.946198260550      7.792444073890
     250   84  1   0.70000     15.785866644900      0.975487302531    -20.828659950400
     251   84  2  -0.35000     15.575311845000      2.032130083590    -20.398807988100
     252   84  2  -0.35000     15.996421444800     -0.081155478528    -21.258511912665
     253   85  1   0.70000    -12.779059275500      6.465271693070      8.170065767610
     254   85  2  -0.35000    -12.497536345400      6.772527947400      9.252626820880
     255   85  2  -0.35000    -13.060582205500      6.158015438750      7.087504714350
     256   86  1   0.70000      9.339370547700      5.027606394110    -20.955121077000
     257   86  2  -0.35000     10.259708551400      4.827831886200    -20.277870676500
     258   86  2  -0.35000      8.419032543990      5.227380902030    -21.632371477465
     259   87  1   0.70000      7.724224493840     20.123882981500     10.637914071300
     260   87  2  -0.35000      7.289385171540     20.967496939800      9.970958111010
     261   87  2  -0.35000      8.159063816150     19.280269023100     11.304870031600
     262   88  1   0.70000    -10.722601937200     -0.746736722459     -2.982607353570
     263   88  2  -0.35000     -9.919999587960     -0.263932753111     -2.298261099010
     264   88  2  -0.35000    -11.525204286500     -1.229540691810     -3.666953608120
     265   89  1   0.70000    -13.296059819000      6.908387863140     -9.241747205650
     266   89  2  -0.35000    -14.088147225000      7.273127554810     -8.476788057430
     267   89  2  -0.35000    -12.503972412900      6.543648171470    -10.006706353900
     268   90  1   0.70000     -0.977806398512    -11.100464002100     17.298402343200
     269   90  2  -0.35000     -1.094573688370    -10.346857537700     16.424306984100
     270   90  2  -0.35000     -0.861039108656    -11.854070466500     18.172497702300
     271   91  1   0.70000     -9.483278900940    -15.145738285000     19.060646020600
     272   91  2  -0.35000    -10.515936484200    -14.802301865100     18.659061980500
     273   91  2  -0.35000     -8.450621317690    -15.489174704900     19.462230060700
     274   92  1   0.70000    -19.552907133900     12.901849873000      0.902653906949
     275   92  2  -0.35000    -18.568206683600     12.579248109500      0.381220186028
     276   92  2  -0.35000    -20.537607584200     13.224451636500      1.424087627870
     277   93  1   0.70000      5.176450227540    -16.447656363400    -12.126775251500
     278   93  2  -0.35000      5.884494325650    -15.537350134600    -12.251739746200
     279   93  2  -0.35000      4.468406129430    -17.357962592200    -12.001810756800
     280   94  1   0.70000     -1.285912713900      6.885178142200     -9.764469931300
     281   94  2  -0.35000     -0.874398078933      7.542292643360    -10.627288705800
     282   94  2  -0.35000     -1.697427348860      6.228063641040     -8.901651156830
     283   95  1   0.70000     -1.716762176010     -2.942163927600    -12.608667990100
     284   95  2  -0.35000     -0.667501984245     -3.341255262590    -12.316470871200
     285   95  2  -0.35000     -2.766022367780     -2.543072592600    -12.900865109100
     286   96  1   0.70000     10.058678037500     -0.395005727399      3.501072521100
     287   96  2  -0.35000     10.798193791800     -1.265069968920      3.296855320860
     288   96  2  -0.35000      9.319162283320      0.475058514124      3.705289721340
     289   97  1   0.70000     14.715224334200    -10.586466912800      0.949505695843
     290   97  2  -0.35000     14.772479274800     -9.726292413850      1.725663993550
     291   97  2  -0.35000     14.657969393500    -11.446641411800      0.173347398140
     292   98  1   0.70000     19.846279092500      9.603035675830      5.608644450200
     293   98  2  -0.35000     19.007102048700      8.803736832580      5.658676923520
     294   98  2  -0.35000     20.685456136300     10.402334519100      5.558611976880
     295   99  1   0.70000    -19.091110710800     19.347626619500     -0.734363858589
     296   99  2  -0.35000    -17.989381383800     19.705524312000     -0.795205716540
     297   99  2  -0.35000    -20.192840037900     18.989728927000     -0.673522000638
     298  100  1   0.70000      7.202080441580      0.064119755342      6.593881552390
     299  100  2  -0.35000      7.606918637270     -0.254108285116      5.554440861650
     300  100  2  -0.35000      6.797242245880      0.382347795800      7.633322243140
     301  101  1   0.70000     20.726466464800     18.494996278200     18.303052272200
     302  101  2  -0.35000     20.653474961900     19.531432383900     17.787230171900
     303  101  2  -0.35000     20.799457967800     17.458560172400     18.818874372500
     304  102  1   0.70000     18.239196647800     -1.678028972440     20.310463257300
     305  102  2  -0.35000     18.464004077200     -0.787118535193     21.018517077665
     306  102  2  -0.35000     18.014389218500     -2.568939409680     19.602409437000
     307  103  1   0.70000    -13.303159320800     -0.111030664315    -18.943193936700
     308  103  2  -0.35000    -13.497913094800     -0.913999126894    -19.757388394800
     309  103  2  -0.35000    -13.108405546800      0.691937798263    -18.128999478600
     310  104  1   0.70000     -6.449535613650    -12.545863295400     17.816200931000
     311  104  2  -0.35000     -6.073017329580    -12.519515113400     16.719323656600
     312  104  2  -0.35000     -6.826053897720    -12.572211477400     18.913078205300
     313  105  1   0.70000     18.914681972100     -4.183314173340     -3.262757039450
     314  105  2  -0.35000     18.470253074800     -4.455631090270     -4.299061267010
     315  105  2  -0.35000     19.359110869300     -3.910997256410     -2.226452811900
     316  106  1   0.70000     18.168733375500    -11.865891515900     12.168812534000
     317  106  2  -0.35000     17.009437747100    -11.906309434000     12.168617751200
     318  106  2  -0.35000     19.328029003800    -11.825473597700     12.169007316800
     319  107  1   0.70000     -1.701870883900    -18.419074518500    -18.035353509400
     320  107  2  -0.35000     -2.034112044600    -17.692602079400    -17.194250895900
     321  107  2  -0.35000     -1.369629723200    -19.145546957600    -18.876456122800
     322  108  1   0.70000    -12.429692896400     -6.816084306850     18.178695050900
     323  108  2  -0.35000    -13.041234086800     -6.908379126580     17.197318956500
     324  108  2  -0.35000    -11.818151706100     -6.723789487120     19.160071145300
     325  109  1   0.70000      6.354279359260     12.575080369800      2.069384582960
     326  109  2  -0.35000      6.507187246230     11.608655910500      1.446293142960
     327  109  2  -0.35000      6.201371472280     13.541504829100      2.692476022970
     328  110  1   0.70000     10.418701999700    -14.238601772700      9.358912559620
     329  110  2  -0.35000     11.504021727300    -14.353525877900      9.751943778200
     330  110  2  -0.35000      9.333382271980    -14.123677667600      8.965881341050
     331  111  1   0.70000      7.496424507890     -5.236849561030    -19.571139006200
     332  111  2  -0.35000      8.393454186260     -4.640913026170    -19.140096777900
     333  111  2  -0.35000      6.599394829510     -5.832786095880    -20.002181234400
     334  112  1   0.70000     15.592794317000      3.863100654280      9.645431033820
     335  112  2  -0.35000     15.130917637700      4.920356068530      9.525094330430
     336  112  2  -0.35000     16.054670996200      2.805845240040      9.765767737220
     337  113  1   0.70000     -6.179168579260    -11.343068134200     -9.243297791670
     338  113  2  -0.35000     -6.439099051240    -11.273142660000     -8.114959820230
     339  113  2  -0.35000     -5.919238107280    -11.412993608400    -10.371635763100
     340  114  1   0.70000      3.762908736830     15.476694140200      8.088602929420