LAMMPS Atom File

         3000 atoms
         2000 bonds
         1000 angles
           0 dihedrals
           0 impropers

           2 atom types
           1 bond types
           1 angle types

         0.0  40.7719038788 xlo xhi
         0.0  40.7719038788 ylo yhi
         0.0  40.7719038788 zlo zhi

Masses

         1   12.01070
         2   15.99990

Atoms

       1    1  1   0.70000    -11.876728743700     17.674338976300    -18.255306219400
       2    1  2  -0.35000    -12.628376793300     16.793221712800    -18.320556335400
       3    1  2  -0.35000    -11.125080694200     18.555456239700    -18.190056103300
       4    2  1   0.70000     18.203351839300      8.418344588030    -20.332231406500
       5    2  2  -0.35000     17.141639065200      8.885464033600    -20.319370269400
       6    2  2  -0.35000     19.265064613400      7.951225142460    -20.345092543600
       7    3  1   0.70000      3.089699314600     17.115850789000      0.214120866443
       8    3  2  -0.35000      4.202516682100     16.802303448500      0.119645621644
       9    3  2  -0.35000      1.976881947100     17.429398129400      0.308596111241
      10    4  1   0.70000      0.257661423118      8.814567237380    -19.656745716600
      11    4  2  -0.35000     -0.491056918013      8.845109150270    -18.771258259200
      12    4  2  -0.35000      1.006379764250      8.784025324490    -20.542233173964
      13    5  1   0.70000     20.039891537300     16.412724426700     -8.413248612150
      14    5  2  -0.35000     21.172274318664     16.233922913400     -8.236219644970
      15    5  2  -0.35000     18.907508755800     16.591525940000     -8.590277579340
      16    6  1   0.70000      9.999288773250     -2.426678787570     -4.884688504010
      17    6  2  -0.35000      9.391191217780     -2.977403766490     -4.064615726380
      18    6  2  -0.35000     10.607386328700     -1.875953808660     -5.704761281650
      19    7  1   0.70000      6.057413008380    -14.596883500200     18.740209906800
      20    7  2  -0.35000      6.054099719000    -15.756823583600     18.728895090800
      21    7  2  -0.35000      6.060726297770    -13.436943416900     18.751524722800
      22    8  1   0.70000     -7.235949640250    -18.217607463400     -6.374433292120
      23    8  2  -0.35000     -6.753439971290    -17.162816367100     -6.360285408910
      24    8  2  -0.35000     -7.718459309210    -19.272398559700     -6.388581175320
      25    9  1   0.70000     -2.666218242680      2.106234126790      6.919134851340
      26    9  2  -0.35000     -3.620885332630      1.746742768910      7.471381816910
      27    9  2  -0.35000     -1.711551152730      2.465725484660      6.366887885770
      28   10  1   0.70000     13.449079773100    -14.568275385000     18.588988575900
      29   10  2  -0.35000     14.174512959100    -14.573275995300     17.683824675500
      30   10  2  -0.35000     12.723646587100    -14.563274774700     19.494152476200
      31   11  1   0.70000    -11.518496398100     18.422908561500      2.502097128700
      32   11  2  -0.35000    -12.196242882600     19.346718133900      2.320891232680
      33   11  2  -0.35000    -10.840749913700     17.499098989100      2.683303024720
      34   12  1   0.70000     -9.098113766790     13.003434039600      2.465903851930
      35   12  2  -0.35000     -8.040721936480     13.365410218300      2.776541523910
      36   12  2  -0.35000    -10.155505597100     12.641457860900      2.155266179960
      37   13  1   0.70000     15.589811703400      0.144081674563      2.673750895880
      38   13  2  -0.35000     16.338671227300     -0.690978818368      2.969526801910
      39   13  2  -0.35000     14.840952179500      0.979142167494      2.377974989860
      40   14  1   0.70000    -17.786403271000     -7.669021710820     17.509308305500
      41   14  2  -0.35000    -18.326648869000     -7.331046598100     16.540026346000
      42   14  2  -0.35000    -17.246157673000     -8.006996823540     18.478590265100
      43   15  1   0.70000     18.293678875100      9.009654569890    -13.051559355100
      44   15  2  -0.35000     18.543774149000      9.657832758790    -13.980492823900
      45   15  2  -0.35000     18.043583601300      8.361476381000    -12.122625886300
      46   16  1   0.70000     -8.726268242700     17.728013596900     15.087997797500
      47   16  2  -0.35000     -8.703418021580     16.568376891700     15.105902529300
      48   16  2  -0.35000     -8.749118463830     18.887650302000     15.070093065700
      49   17  1   0.70000     -2.785912525050     16.717537520600     11.218742611400
      50   17  2  -0.35000     -2.832305421260     17.852960194300     10.985798302200
      51   17  2  -0.35000     -2.739519628850     15.582114846900     11.451686920700
      52   18  1   0.70000      3.876559182110     14.501595605200    -15.990443610600
      53   18  2  -0.35000      4.831808422420     14.262106625700    -15.377464069600
      54   18  2  -0.35000      2.921309941790     14.741084584600    -16.603423151500
      55   19  1   0.70000     15.166941541200      6.331615843240     19.480464401100
      56   19  2  -0.35000     14.636229920000      6.148623032010     20.495579569964
      57   19  2  -0.35000     15.697653162500      6.514608654470     18.465349232200
      58   20  1   0.70000     -3.315008991540     14.294291353900      6.668502774190
      59   20  2  -0.35000     -2.486555020800     14.187409503800      7.473388038360
      60   20  2  -0.35000     -4.143462962280     14.401173204000      5.863617510020
      61   21  1   0.70000     -1.309659006600    -18.627714412300    -20.078901010800
      62   21  2  -0.35000     -1.544203676070    -19.754479016500    -20.223781391700
      63   21  2  -0.35000     -1.075114337140    -17.500949808100    -19.934020630000
      64   22  1   0.70000     -0.648615075637      5.071187762820      8.804059506800
      65   22  2  -0.35000     -1.019370782640      5.835518716510      9.593957221030
      66   22  2  -0.35000     -0.277859368632      4.306856809120      8.014161792570
      67   23  1   0.70000     -3.117858367720     -1.643153927420     -3.596140243750
      68   23  2  -0.35000     -2.344571837150     -2.494083947720     -3.442693047030
      69   23  2  -0.35000     -3.891144898290     -0.792223907111     -3.749587440480
      70   24  1   0.70000      5.399633851590     16.755613679300      3.665096573640
      71   24  2  -0.35000      5.608759032950     17.476751341600      4.549306464230
      72   24  2  -0.35000      5.190508670230     16.034476017100      2.780886683050
      73   25  1   0.70000    -12.647139541800     11.070821900400    -12.928292376700
      74   25  2  -0.35000    -11.736157806200     10.468702785100    -13.319655186000
      75   25  2  -0.35000    -13.558121277300     11.672941015700    -12.536929567400
      76   26  1   0.70000     19.859143341700    -13.264339627000     17.273034833900
      77   26  2  -0.35000     19.156943299800    -12.524274526600     16.720930904900
      78   26  2  -0.35000     20.561343383564    -14.004404727400     17.825138762900
      79   27  1   0.70000     10.723508426900     -9.952621821790      1.944869822290
      80   27  2  -0.35000     11.394448097700    -10.325853616500      1.075307871880
      81   27  2  -0.35000     10.052568756100     -9.579390027090      2.814431772690
      82   28  1   0.70000     19.023553444200     14.318899643600     18.924266780600
      83   28  2  -0.35000     18.823818664700     13.680319377800     17.976679707000
      84   28  2  -0.35000     19.223288223600     14.957479909500     19.871853854100
      85   29  1   0.70000     -5.430725086940     -8.144638174630    -19.925233059400
      86   29  2  -0.35000     -4.607028501660     -7.332205724610    -20.009360638500
      87   29  2  -0.35000     -6.254421672210     -8.957070624640    -19.841105480300
      88   30  1   0.70000      6.933281382830    -15.056992608700    -16.670514609300
      89   30  2  -0.35000      5.904296810250    -14.810025908100    -17.145696888200
      90   30  2  -0.35000      7.962265955410    -15.303959309300    -16.195332330400
      91   31  1   0.70000    -17.198068942800     -5.946462439550    -13.289291837800
      92   31  2  -0.35000    -18.237757352000     -6.344716426590    -12.963651278800
      93   31  2  -0.35000    -16.158380533600     -5.548208452510    -13.614932396700
      94   32  1   0.70000     10.790440972600    -14.067762476900      2.250009705070
      95   32  2  -0.35000     10.476789590100    -13.031639160500      2.666748572450
      96   32  2  -0.35000     11.104092355000    -15.103885793300      1.833270837690
      97   33  1   0.70000      5.492949485510    -20.223908646100    -16.863726887600
      98   33  2  -0.35000      4.943828737410    -19.202445927000    -16.889809782300
      99   33  2  -0.35000      6.042070233610    -21.245371365264    -16.837643992800
     100   34  1   0.70000      7.609310401390      4.915120495250    -10.919488972600
     101   34  2  -0.35000      6.702208533550      5.619573486510    -11.082314598500
     102   34  2  -0.35000      8.516412269230      4.210667503990    -10.756663346600
     103   35  1   0.70000     11.884911974200    -19.182671860900     12.205877734600
     104   35  2  -0.35000     12.507131215800    -18.574566850700     12.973114016300
     105   35  2  -0.35000     11.262692732600    -19.790776871100     11.438641452900
     106   36  1   0.70000     -2.093357128490    -15.976283274900      9.172405836190
     107   36  2  -0.35000     -1.871636768590    -15.478904032800      8.148172478240
     108   36  2  -0.35000     -2.315077488390    -16.473662517100     10.196639194100
     109   37  1   0.70000      6.682937662260     -2.011404692610    -14.105032346300
     110   37  2  -0.35000      6.524914085140     -1.946602527440    -12.957674848200
     111   37  2  -0.35000      6.840961239370     -2.076206857770    -15.252389844400
     112   38  1   0.70000     -5.257324848050    -14.418986700500     -2.570030719090
     113   38  2  -0.35000     -4.464485090510    -15.247771896400     -2.743582492230
     114   38  2  -0.35000     -6.050164605590    -13.590201504600     -2.396478945950
     115   39  1   0.70000     14.565050731000    -16.482352921900      4.128277501520
     116   39  2  -0.35000     14.929761060000    -17.257382139000      4.910528157410
     117   39  2  -0.35000     14.200340401900    -15.707323704900      3.346026845630
     118   40  1   0.70000     17.042552509100     14.213801205400     -5.325000322010
     119   40  2  -0.35000     16.824635290400     13.077934932400     -5.236006526640
     120   40  2  -0.35000     17.260469727900     15.349667478500     -5.413994117370
     121   41  1   0.70000    -15.676484067600     -7.270604957560    -10.231322918100
     122   41  2  -0.35000    -16.385218945800     -6.752469416420    -10.989498645400
     123   41  2  -0.35000    -14.967749189500     -7.788740498700     -9.473147190720
     124   42  1   0.70000    -14.576475391300    -19.119737346900      0.340460358574
     125   42  2  -0.35000    -13.534639388200    -19.334214564800      0.803253255653
     126   42  2  -0.35000    -15.618311394400    -18.905260129000     -0.122332538504
     127   43  1   0.70000     13.187760410500     -8.557678577730    -12.841557780600
     128   43  2  -0.35000     13.784300721500     -7.567774460730    -12.940701597700
     129   43  2  -0.35000     12.591220099500     -9.547582694720    -12.742413963500
     130   44  1   0.70000     16.364465998600      7.012099547280     -9.485794338560
     131   44  2  -0.35000     17.306404289200      6.335850175490     -9.453560134920
     132   44  2  -0.35000     15.422527708000      7.688348919060     -9.518028542210
     133   45  1   0.70000     -6.710519371320     -1.344992564950     -0.046789495450
     134   45  2  -0.35000     -6.371159269920     -1.178288395550     -1.143440963090
     135   45  2  -0.35000     -7.049879472720     -1.511696734340      1.049861972190
     136   46  1   0.70000      9.195530581650     -7.476364713160      8.265826291200
     137   46  2  -0.35000      8.627149982870     -7.015186483480      9.165747474080
     138   46  2  -0.35000      9.763911180430     -7.937542942850      7.365905108320
     139   47  1   0.70000     14.202161426000      9.813770044320    -18.628661433100
     140   47  2  -0.35000     14.181579244900      9.626476906050    -19.773256406900
     141   47  2  -0.35000     14.222743607100     10.001063182600    -17.484066459200
     142   48  1   0.70000      8.505714086890    -11.522164969600     16.345575047100
     143   48  2  -0.35000      7.389750626470    -11.652076128500     16.634276702400
     144   48  2  -0.35000      9.621677547320    -11.392253810700     16.056873391800
     145   49  1   0.70000     -0.523807119935      3.849207439740     19.500931673600
     146   49  2  -0.35000     -0.246439951750      3.595516183470     20.598341442364
     147   49  2  -0.35000     -0.801174288120      4.102898696020     18.403521904900
     148   50  1   0.70000    -14.868545362200      6.752671298360     10.889306774300
     149   50  2  -0.35000    -15.231776400800      7.806909585720     11.209064254400
     150   50  2  -0.35000    -14.505314323600      5.698433011000     10.569549294200
     151   51  1   0.70000      5.572265741630     17.461408436300     -6.375637075790
     152   51  2  -0.35000      4.735617883760     18.264411389200     -6.404038126500
     153   51  2  -0.35000      6.408913599510     16.658405483500     -6.347236025070
     154   52  1   0.70000    -17.015294029300      4.366392939840     -3.644046434540
     155   52  2  -0.35000    -15.943123727200      4.544915797610     -4.049238281240
     156   52  2  -0.35000    -18.087464331300      4.187870082070     -3.238854587850
     157   53  1   0.70000    -17.864236306100     16.378239502000     -4.823231088960
     158   53  2  -0.35000    -18.374900934900     17.178220491000     -4.156258785140
     159   53  2  -0.35000    -17.353571677300     15.578258512900     -5.490203392780
     160   54  1   0.70000      5.710333802170    -19.824609136200     18.392647970200
     161   54  2  -0.35000      4.864115685310    -19.259349418000     18.949421128400
     162   54  2  -0.35000      6.556551919030    -20.389868854464     17.835874812100
     163   55  1   0.70000     15.067912565400     -8.359769357110      8.370967728220
     164   55  2  -0.35000     15.957769148700     -9.092001966780      8.503597537630
     165   55  2  -0.35000     14.178055982000     -7.627536747440      8.238337918800
     166   56  1   0.70000    -14.571442605300     -2.069926967660    -10.718550847600
     167   56  2  -0.35000    -14.791295439600     -0.931480326774    -10.683852474000
     168   56  2  -0.35000    -14.351589771000     -3.208373608540    -10.753249221100
     169   57  1   0.70000     -5.728042183670      8.117419928370    -19.674281304600
     170   57  2  -0.35000     -6.045468837100      7.200034814480    -20.309296952100
     171   57  2  -0.35000     -5.410615530240      9.034805042260    -19.039265657200
     172   58  1   0.70000     19.545667073600    -20.037458128000    -18.026306425200
     173   58  2  -0.35000     20.424628838764    -20.481721169064    -18.639214710000
     174   58  2  -0.35000     18.666705308500    -19.593195086800    -17.413398140300
     175   59  1   0.70000    -11.868776714200     13.146382774300      5.884753302060
     176   59  2  -0.35000    -11.656496824400     13.390862063600      4.770856033250
     177   59  2  -0.35000    -12.081056604000     12.901903485000      6.998650570870
     178   60  1   0.70000     -0.679494714658     -6.382361194090     20.139509401300
     179   60  2  -0.35000     -1.223605736370     -7.019195565120     19.337022529100
     180   60  2  -0.35000     -0.135383692945     -5.745526823050     20.941996273364
     181   61  1   0.70000      5.295847513940     14.730828396600    -11.332975783400
     182   61  2  -0.35000      5.726940185720     15.807374152300    -11.304544391500
     183   61  2  -0.35000      4.864754842170     13.654282640800    -11.361407175400
     184   62  1   0.70000     19.745256362200      6.261871468000     -7.921092535930
     185   62  2  -0.35000     19.326030635700      5.649335347380     -7.029661500390
     186   62  2  -0.35000     20.164482088800      6.874407588610     -8.812523571470
     187   63  1   0.70000     18.130405228000    -17.294659998400     -4.517329771260
     188   63  2  -0.35000     18.110040061000    -18.042090443800     -3.630462820030
     189   63  2  -0.35000     18.150770394900    -16.547229552900     -5.404196722480
     190   64  1   0.70000     -1.634445868480     11.125972476400      7.378901111760
     191   64  2  -0.35000     -2.751335851810     11.438703756100      7.360035485050
     192   64  2  -0.35000     -0.517555885138     10.813241196800      7.397766738460
     193   65  1   0.70000    -20.234063977000    -17.038628232000     20.235797066700
     194   65  2  -0.35000    -19.591545213700    -17.074418702000     19.270660454000
     195   65  2  -0.35000    -20.876582740264    -17.002837762100     21.200933679364
     196   66  1   0.70000      3.196507100300    -15.411584234100      1.280448160360
     197   66  2  -0.35000      3.587354262320    -15.515804927600      2.367635606470
     198   66  2  -0.35000      2.805659938270    -15.307363540600      0.193260714247
     199   67  1   0.70000     -9.457144465610     -8.335835676950     -0.243125260958
     200   67  2  -0.35000    -10.377326591100     -9.037100780050     -0.327339933742
     201   67  2  -0.35000     -8.536962340130     -7.634570573850     -0.158910588173
     202   68  1   0.70000     -5.003122979010     -7.747066217830      0.894749385748
     203   68  2  -0.35000     -4.146416088010     -8.214050044260      1.522108460590
     204   68  2  -0.35000     -5.859829870000     -7.280082391410      0.267390310904
     205   69  1   0.70000    -13.033684559200     -5.831009253900      9.555278013780
     206   69  2  -0.35000    -12.640273727800     -4.809218093510      9.938384712080
     207   69  2  -0.35000    -13.427095390600     -6.852800414280      9.172171315480
     208   70  1   0.70000    -16.827703605500     -8.135956523640     -6.417506384800
     209   70  2  -0.35000    -16.728697390400     -9.051233779040     -5.711768958320
     210   70  2  -0.35000    -16.926709820600     -7.220679268240     -7.123243811270
     211   71  1   0.70000    -14.667806068100      0.114339925053     15.159451691400
     212   71  2  -0.35000    -14.396061359400      0.232359028564     16.280980248600
     213   71  2  -0.35000    -14.939550776700     -0.003679178457     14.037923134300
     214   72  1   0.70000     -5.821604671230    -15.483582973100     10.896959645500
     215   72  2  -0.35000     -5.256265678570    -14.745342716400     10.203422950900
     216   72  2  -0.35000     -6.386943663890    -16.221823229700     11.590496340100
     217   73  1   0.70000    -10.202950499400      3.945124144860    -10.633587463500
     218   73  2  -0.35000     -9.613001388720      3.012289163540    -10.990489332900
     219   73  2  -0.35000    -10.792899610200      4.877959126170    -10.276685594000
     220   74  1   0.70000     -6.683255061510    -14.256933581400      5.362033621530
     221   74  2  -0.35000     -6.086011651680    -14.556470946400      6.310283417940
     222   74  2  -0.35000     -7.280498471330    -13.957396216400      4.413783825120
     223   75  1   0.70000     18.385501164100     -6.632449700030    -17.399751749600
     224   75  2  -0.35000     17.504026905300     -7.375287216510    -17.529349416400
     225   75  2  -0.35000     19.266975422800     -5.889612183550    -17.270154082700
     226   76  1   0.70000     16.191050156300      4.491306324610    -14.015214619300
     227   76  2  -0.35000     16.031443577600      3.880966466530    -14.988667750100
     228   76  2  -0.35000     16.350656734900      5.101646182690    -13.041761488600
     229   77  1   0.70000      8.212590696610    -11.024248996400     -0.477439445901
     230   77  2  -0.35000      7.425051021880    -11.875775836100     -0.494271023753
     231   77  2  -0.35000      9.000130371330    -10.172722156700     -0.460607868050
     232   78  1   0.70000     15.395465545700     12.779410841500      4.382562299800
     233   78  2  -0.35000     14.681374527000     13.295356475500      5.137197390330
     234   78  2  -0.35000     16.109556564300     12.263465207600      3.627927209270
     235   79  1   0.70000     14.514727679500     10.727190558200     13.183631109000
     236   79  2  -0.35000     13.863309495800     11.686019723300     13.227231364300
     237   79  2  -0.35000     15.166145863100      9.768361393190     13.140030853700
     238   80  1   0.70000    -13.827881995100     13.948238769200    -16.103706689000
     239   80  2  -0.35000    -14.656036198200     14.659173856500    -16.496557700700
     240   80  2  -0.35000    -12.999727791900     13.237303681900    -15.710855677200
     241   81  1   0.70000     13.277355173700    -15.247279012500     10.761267327200
     242   81  2  -0.35000     12.679652506400    -14.531170949200     10.071672690200
     243   81  2  -0.35000     13.875057840900    -15.963387075800     11.450861964100
     244   82  1   0.70000     -7.391346552410     -9.490627339580     -3.761033268460
     245   82  2  -0.35000     -7.922928412610    -10.332345264700     -3.165607655630
     246   82  2  -0.35000     -6.859764692210     -8.648909414440     -4.356458881290
     247   83  1   0.70000     18.906853941200     -8.687279854630     11.112997065200
     248   83  2  -0.35000     19.574273644100     -7.821585713310     10.724764410800
     249   83  2  -0.35000     18.239434238400     -9.552973995960     11.501229719500
     250   84  1   0.70000     17.254314666400    -15.248198760700    -17.567728173900
     251   84  2  -0.35000     17.381379414900    -14.154041316500    -17.931423151800
     252   84  2  -0.35000     17.127249917900    -16.342356204900    -17.204033195900
     253   85  1   0.70000      7.781905464870      9.535723922690      8.214276769720
     254   85  2  -0.35000      7.047146510530      9.856184875870      7.375805508140
     255   85  2  -0.35000      8.516664419210      9.215262969510      9.052748031310
     256   86  1   0.70000     13.900867821800      2.209999722650     19.910281465000
     257   86  2  -0.35000     13.044503274100      2.777990371680     20.448450940164
     258   86  2  -0.35000     14.757232369600      1.642009073620     19.372111989900
     259   87  1   0.70000    -16.410662925900      7.662945355600      8.194562971580
     260   87  2  -0.35000    -17.224927656400      6.863058655160      7.987792047090
     261   87  2  -0.35000    -15.596398195500      8.462832056040      8.401333896080
     262   88  1   0.70000     10.466013944400     10.200370825700    -18.257547532800
     263   88  2  -0.35000     10.828397702600     10.075328653800    -17.162722219300
     264   88  2  -0.35000     10.103630186300     10.325412997600    -19.352372846300
     265   89  1   0.70000      5.608713769430    -20.261800918700     11.602473209400
     266   89  2  -0.35000      5.376621034670    -19.299673788900     12.207489199700
     267   89  2  -0.35000      5.840806504190    -21.223928048464     10.997457219000
     268   90  1   0.70000     -8.885409863190     -2.096540744650     -3.759934826120
     269   90  2  -0.35000     -8.807240671510     -2.144415331970     -2.603562221220
     270   90  2  -0.35000     -8.963579054860     -2.048666157320     -4.916307431020
     271   91  1   0.70000    -10.758834850300      3.284372954360     -6.785382560090
     272   91  2  -0.35000    -11.433068302600      3.054234813880     -7.700830913700
     273   91  2  -0.35000    -10.084601398000      3.514511094830     -5.869934206490
     274   92  1   0.70000     -0.071039635976    -14.052837462700     19.555757661200
     275   92  2  -0.35000      0.928603856793    -14.395541238000     20.034158131300
     276   92  2  -0.35000     -1.070683128740    -13.710133687300     19.077357191200
     277   93  1   0.70000     -7.021682019800    -13.919445690000     15.699835465300
     278   93  2  -0.35000     -6.845765124670    -14.718159919700     14.877212328400
     279   93  2  -0.35000     -7.197598914930    -13.120731460300     16.522458602200
     280   94  1   0.70000    -19.642302603600     14.537655222100     -3.811273254470
     281   94  2  -0.35000    -20.537911728964     15.199415826900     -4.136168924630
     282   94  2  -0.35000    -18.746693478200     13.875894617300     -3.486377584310
     283   95  1   0.70000     -8.259126806840      6.268697217460     -9.759673414120
     284   95  2  -0.35000     -8.541291748010      7.338641905050     -9.411533626850
     285   95  2  -0.35000     -7.976961865670      5.198752529870    -10.107813201400
     286   96  1   0.70000      2.674627250210     -5.044342211780     -6.825148611860
     287   96  2  -0.35000      2.470110332470     -6.085889877980     -7.293070923140
     288   96  2  -0.35000      2.879144167950     -4.002794545580     -6.357226300570
     289   97  1   0.70000      9.578475028320     -3.678104915220      7.828738691550
     290   97  2  -0.35000      9.139928210010     -3.928747229910      8.872987281790
     291   97  2  -0.35000     10.017021846600     -3.427462600530      6.784490101300
     292   98  1   0.70000     15.929577120200    -11.480083271000     -1.787987763570
     293   98  2  -0.35000     16.623407685400    -10.555186379000     -1.694366792980
     294   98  2  -0.35000     15.235746555000    -12.404980162900     -1.881608734160
     295   99  1   0.70000     18.985386223600      8.112926278490      7.524282218240
     296   99  2  -0.35000     18.847674412900      9.102566922880      8.113558768050
     297   99  2  -0.35000     19.123098034300      7.123285634100      6.935005668430
     298  100  1   0.70000     20.040451361500     19.278850167000     -1.734533877430
     299  100  2  -0.35000     19.710094231300     20.354052146100     -2.018091403600
     300  100  2  -0.35000     20.370808491700     18.203648187900     -1.450976351270
     301  101  1   0.70000     11.057702984900      6.185791298190      0.632832646204
     302  101  2  -0.35000     11.193106581000      5.854708758990     -0.470639246681
     303  101  2  -0.35000     10.922299388700      6.516873837390      1.736304539090
     304  102  1   0.70000     19.926742466000      1.003592115810     20.277846650300
     305  102  2  -0.35000     19.018203371200      1.434538181720     19.699536870400
     306  102  2  -0.35000     20.835281560764      0.572646049905     20.856156430164
     307  103  1   0.70000    -12.882948963000     -0.835173581883    -16.267813578600
     308  103  2  -0.35000    -12.082895575400     -1.302840994180    -15.570101769600
     309  103  2  -0.35000    -13.683002350600     -0.367506169587    -16.965525387600
     310  104  1   0.70000     -6.665345617510    -10.962022503100    -18.150561619600
     311  104  2  -0.35000     -6.083239928630    -10.391739546100    -17.325013125600
     312  104  2  -0.35000     -7.247451306380    -11.532305460000    -18.976110113600
     313  105  1   0.70000     19.660541691400     -5.260230353740     -5.557777731200
     314  105  2  -0.35000     20.778148455364     -5.491077333970     -5.765779637320
     315  105  2  -0.35000     18.542934927500     -5.029383373510     -5.349775825070
     316  106  1   0.70000     -1.400193734300     20.007127610400    -13.327253376600
     317  106  2  -0.35000     -1.656273290130     21.059070033464    -12.910791614000
     318  106  2  -0.35000     -1.144114178460     18.955185187400    -13.743715139100
     319  107  1   0.70000      5.712466772050     10.922535423000     -1.332183160020
     320  107  2  -0.35000      5.530592329040     10.447721921400     -0.289554834281
     321  107  2  -0.35000      5.894341215070     11.397348924700     -2.374811485760
     322  108  1   0.70000     13.103555559500    -12.015460520800      6.142873403270
     323  108  2  -0.35000     12.811327594200    -12.221037726600      5.039269838250
     324  108  2  -0.35000     13.395783524800    -11.809883315000      7.246476968300
     325  109  1   0.70000     -3.415189861630     -2.848307691140    -19.885854132700
     326  109  2  -0.35000     -2.695556137040     -3.380181086740    -19.147722712500
     327  109  2  -0.35000     -4.134823586220     -2.316434295540    -20.623985552864
     328  110  1   0.70000     16.101385822100      4.235588108830     10.726194495100
     329  110  2  -0.35000     17.099654296500      4.126096490920     11.306773205200
     330  110  2  -0.35000     15.103117347700      4.345079726730     10.145615785000
     331  111  1   0.70000     -0.090215155601    -13.512577177400    -12.018754098100
     332  111  2  -0.35000     -0.412221621778    -14.515774777000    -12.504044126900
     333  111  2  -0.35000      0.231791310575    -12.509379577900    -11.533464069400
     334  112  1   0.70000      1.024810686670     15.096660715700      7.380939652790
     335  112  2  -0.35000      1.418318736040     15.151297917200      8.470786518770
     336  112  2  -0.35000      0.631302637292     15.042023514200      6.291092786810
     337  113  1   0.70000     -0.959803065772     -8.905924251090     13.632599010100
     338  113  2  -0.35000     -0.003393728301     -9.534558761950     13.821542999000
     339  113  2  -0.35000     -1.916212403240     -8.277289740230     13.443655021200
     340  114  1   0.70000     17.194912337900    -13.338949402900      5.813355571460