LAMMPS Atom File

         3000 atoms
         2000 bonds
         1000 angles
           0 dihedrals
           0 impropers

           2 atom types
           1 bond types
           1 angle types

         0.0  692.510482506 xlo xhi
         0.0  692.510482506 ylo yhi
         0.0  692.510482506 zlo zhi

Masses

         1   12.01070
         2   15.99990

Atoms

       1    1  1   0.70000   -194.931615475000    274.072989317000   -271.548070996000
       2    1  2  -0.35000   -195.328733596000    274.319138879000   -272.609818420000
       3    1  2  -0.35000   -194.534497355000    273.826839755000   -270.486323573000
       4    2  1   0.70000    299.031148095000    153.068301435000   -292.998362322000
       5    2  2  -0.35000    299.245001470000    151.932594658000   -293.098546411000
       6    2  2  -0.35000    298.817294720000    154.204008211000   -292.898178233000
       7    3  1   0.70000     85.145577130900    259.269580792000      5.348965697700
       8    3  2  -0.35000     84.272618603700    258.593125647000      4.994068744640
       9    3  2  -0.35000     86.018535658100    259.946035936000      5.703862650760
      10    4  1   0.70000   -108.232027164000    139.965381371000   -343.653924523000
      11    4  2  -0.35000   -107.942375849000    140.589768130000   -344.587650013000
      12    4  2  -0.35000   -108.521678479000    139.340994611000   -342.720199033000
      13    5  1   0.70000   -304.977018431000    196.739267573000   -137.361745489000
      14    5  2  -0.35000   -305.208807520000    195.672811089000   -136.968624151000
      15    5  2  -0.35000   -304.745229341000    197.805724056000   -137.754866826000
      16    6  1   0.70000    201.614608888000    -15.365470136700    -94.614608085500
      17    6  2  -0.35000    202.301280593000    -16.071596465600    -95.227362176500
      18    6  2  -0.35000    200.927937182000    -14.659343807800    -94.001853994500
      19    7  1   0.70000     45.582467217400   -271.274736774000    313.212343819000
      20    7  2  -0.35000     45.586110405100   -272.082232660000    314.045132581000
      21    7  2  -0.35000     45.578824029800   -270.467240888000    312.379555058000
      22    8  1   0.70000   -119.046205665000   -339.877420212000   -147.584648749000
      23    8  2  -0.35000   -119.378733518000   -340.746696380000   -148.277024492000
      24    8  2  -0.35000   -118.713677812000   -339.008144043000   -146.892273005000
      25    9  1   0.70000    -80.313885910100     39.408290700800    188.693961785000
      26    9  2  -0.35000    -80.603994786700     38.889013814300    189.689847499000
      27    9  2  -0.35000    -80.023777033500     39.927567587300    187.698076072000
      28   10  1   0.70000    149.810103790000   -188.074804296000   -305.572761834000
      29   10  2  -0.35000    148.780999640000   -187.671797535000   -305.925082994000
      30   10  2  -0.35000    150.839207939000   -188.477811057000   -305.220440673000
      31   11  1   0.70000   -180.461030591000    338.755413055000     65.981479608700
      32   11  2  -0.35000   -180.211086548000    337.951251826000     65.183699756100
      33   11  2  -0.35000   -180.710974635000    339.559574284000     66.779259461300
      34   12  1   0.70000   -148.057802888000    236.009007713000     37.798580825300
      35   12  2  -0.35000   -146.991801854000    235.551803037000     37.812922403000
      36   12  2  -0.35000   -149.123803921000    236.466212390000     37.784239247600
      37   13  1   0.70000    203.119482266000     10.661534029800     61.154313463900
      38   13  2  -0.35000    202.059706731000     10.729656045900     61.621041656600
      39   13  2  -0.35000    204.179257801000     10.593412013600     60.687585271200
      40   14  1   0.70000   -346.041243972000   -146.672992484000    247.961617357000
      41   14  2  -0.35000   -345.599975471000   -145.728207417000    248.469813469000
      42   14  2  -0.35000   -346.482512473549   -147.617777550000    247.453421245000
      43   15  1   0.70000    317.351495403000    217.942862256000   -220.486712779000
      44   15  2  -0.35000    316.983414980000    217.977387802000   -219.387201620000
      45   15  2  -0.35000    317.719575826000    217.908336710000   -221.586223938000
      46   16  1   0.70000   -172.164611124000    200.143790546000    268.185540587000
      47   16  2  -0.35000   -172.890324478000    199.432269156000    267.626364909000
      48   16  2  -0.35000   -171.438897769000    200.855311935000    268.744716265000
      49   17  1   0.70000    -30.595062369500    246.340778994000    195.601397812000
      50   17  2  -0.35000    -31.332840609900    245.904881849000    194.819555791000
      51   17  2  -0.35000    -29.857284129200    246.776676140000    196.383239834000
      52   18  1   0.70000     38.895860374600    307.679721214000   -278.992724612000
      53   18  2  -0.35000     39.074778694000    306.637445808000   -279.469432293000
      54   18  2  -0.35000     38.716942055200    308.721996620000   -278.516016930000
      55   19  1   0.70000    323.799813224000     77.857732631200    274.842377843000
      56   19  2  -0.35000    323.058527705000     77.924882373000    275.732089421000
      57   19  2  -0.35000    324.541098743000     77.790582889500    273.952666266000
      58   20  1   0.70000   -204.347369814000    283.759648502000   -291.202982726000
      59   20  2  -0.35000   -203.451516866000    283.442304188000   -290.537896204000
      60   20  2  -0.35000   -205.243222762000    284.076992816000   -291.868069248000
      61   21  1   0.70000   -161.499057873000   -305.496163145000     77.312900517900
      62   21  2  -0.35000   -161.274960902000   -306.003684252000     76.294174414500
      63   21  2  -0.35000   -161.723154844000   -304.988642038000     78.331626621300
      64   22  1   0.70000    -27.701906191300   -292.591302026000   -321.902440481000
      65   22  2  -0.35000    -28.798939746800   -292.235939188000   -321.776604749000
      66   22  2  -0.35000    -26.604872635800   -292.946664864000   -322.028276212000
      67   23  1   0.70000     -7.097467296850     66.564456621100    239.853416662000
      68   23  2  -0.35000     -6.524063542750     65.856126413800    239.135728392000
      69   23  2  -0.35000     -7.670871050960     67.272786828400    240.571104932000
      70   24  1   0.70000      4.099337455230    -63.096656930000    -47.876197318800
      71   24  2  -0.35000      3.913210138130    -62.147448680200    -47.235915880400
      72   24  2  -0.35000      4.285464772330    -64.045865179700    -48.516478757200
      73   25  1   0.70000     69.458088658900    285.447980408000     40.159138851500
      74   25  2  -0.35000     70.253646309500    285.605671251000     39.329788730900
      75   25  2  -0.35000     68.662531008400    285.290289564000     40.988488972200
      76   26  1   0.70000   -157.941549509000    156.430541046000   -270.801142242000
      77   26  2  -0.35000   -158.759837161000    157.214838844000   -270.554398889000
      78   26  2  -0.35000   -157.123261857000    155.646243248000   -271.047885596000
      79   27  1   0.70000    341.746650456000   -279.697845825000    259.035289113000
      80   27  2  -0.35000    341.455353890000   -278.922629748000    259.847561447000
      81   27  2  -0.35000    342.037947022000   -280.473061901000    258.223016778000
      82   28  1   0.70000    -38.221737330200      5.547783450790    173.076748471000
      83   28  2  -0.35000    -38.542662731300      5.098563102080    172.056548508000
      84   28  2  -0.35000    -37.900811929000      5.997003799490    174.096948434000
      85   29  1   0.70000    262.370543233000   -124.747533599000      4.939264475310
      86   29  2  -0.35000    261.491071363000   -125.502586429000      4.894270538850
      87   29  2  -0.35000    263.250015103000   -123.992480770000      4.984258411760
      88   30  1   0.70000    300.837526111000    226.978629849000    307.654622336000
      89   30  2  -0.35000    301.036893249000    227.567872687000    308.633726836000
      90   30  2  -0.35000    300.638158973000    226.389387010000    306.675517836000
      91   31  1   0.70000    -71.952808591300   -164.852624420000   -292.093189916000
      92   31  2  -0.35000    -72.430401810500   -164.155972947000   -292.888288301000
      93   31  2  -0.35000    -71.475215372200   -165.549275893000   -291.298091531000
      94   32  1   0.70000    147.987062544000   -276.890855963000   -289.370895605000
      95   32  2  -0.35000    148.021339707000   -277.271999505000   -290.465954817000
      96   32  2  -0.35000    147.952785380000   -276.509712421000   -288.275836394000
      97   33  1   0.70000   -307.631920498000   -105.650371786000   -250.623856803000
      98   33  2  -0.35000   -306.931044577000   -105.281776169000   -249.776206985000
      99   33  2  -0.35000   -308.332796419000   -106.018967404000   -251.471506622000
     100   34  1   0.70000    225.308244309000   -282.804542922000     33.690863234900
     101   34  2  -0.35000    224.766840902000   -282.929019056000     34.709189333200
     102   34  2  -0.35000    225.849647716000   -282.680066788000     32.672537136600
     103   35  1   0.70000    112.645219064000   -322.767870720000   -201.706938560000
     104   35  2  -0.35000    113.225707894000   -322.422942371000   -200.763722172000
     105   35  2  -0.35000    112.064730235000   -323.112799068000   -202.650154947000
     106   36  1   0.70000     73.181643425500    165.685567111000   -185.255226633000
     107   36  2  -0.35000     72.332915851500    166.088570552000   -184.574896028000
     108   36  2  -0.35000     74.030370999400    165.282563671000   -185.935557238000
     109   37  1   0.70000    260.827780454000   -305.505049474000    221.042115708000
     110   37  2  -0.35000    261.026448666000   -306.646313157000    220.981715814000
     111   37  2  -0.35000    260.629112242000   -304.363785791000    221.102515602000
     112   38  1   0.70000    -51.727325143200   -310.173667189000    189.864515748000
     113   38  2  -0.35000    -50.758555551300   -309.720488346000    190.313642026000
     114   38  2  -0.35000    -52.696094735000   -310.626846033000    189.415389470000
     115   39  1   0.70000    239.035084365000    -35.404014909300   -300.584930568000
     116   39  2  -0.35000    239.139154945000    -35.263803514000   -299.438148078000
     117   39  2  -0.35000    238.931013785000    -35.544226304600   -301.731713058000
     118   40  1   0.70000    -97.925909428600   -216.231510733000    -45.167025875300
     119   40  2  -0.35000    -98.444274228100   -217.171204853000    -45.607335875000
     120   40  2  -0.35000    -97.407544629100   -215.291816613000    -44.726715875600
     121   41  1   0.70000    260.393602518000   -316.737540131000     98.556200322800
     122   41  2  -0.35000    259.665769554000   -317.484985827000     98.049067096900
     123   41  2  -0.35000    261.121435481000   -315.990094435000     99.063333548700
     124   42  1   0.70000    243.604108603000    255.905597833000    -96.741496109800
     125   42  2  -0.35000    242.564139010000    255.545304148000    -97.107899860500
     126   42  2  -0.35000    244.644078195000    256.265891517000    -96.375092359100
     127   43  1   0.70000   -239.446866346000   -150.501276113000   -198.372266896000
     128   43  2  -0.35000   -240.365684192000   -150.721205891000   -197.699210688000
     129   43  2  -0.35000   -238.528048500000   -150.281346334000   -199.045323103000
     130   44  1   0.70000   -277.409931445000   -315.924176254000     35.107912737700
     131   44  2  -0.35000   -277.592672687000   -316.406732687000     36.146828002000
     132   44  2  -0.35000   -277.227190202000   -315.441619820000     34.068997473400
     133   45  1   0.70000    184.251437915000   -163.678981435000   -171.769843020000
     134   45  2  -0.35000    185.259621594000   -163.185952719000   -172.063251190000
     135   45  2  -0.35000    183.243254235000   -164.172010151000   -171.476434849000
     136   46  1   0.70000    322.400294785000     86.911023269300   -104.518565399000
     137   46  2  -0.35000    322.184560036000     87.393937342600   -105.550966734000
     138   46  2  -0.35000    322.616029533000     86.428109195900   -103.486164065000
     139   47  1   0.70000    -29.551888537900      6.981792118190     17.330462553500
     140   47  2  -0.35000    -30.287089456300      6.993487906660     18.227648608900
     141   47  2  -0.35000    -28.816687619400      6.970096329720     16.433276498000
     142   48  1   0.70000    160.657104051000   -109.658339876000    162.897553872000
     143   48  2  -0.35000    159.928262560000   -108.924496532000    163.422781468000
     144   48  2  -0.35000    161.385945541000   -110.392183220000    162.372326276000
     145   49  1   0.70000    251.938157181000    142.024731108000   -273.412519718000
     146   49  2  -0.35000    252.781633713000    141.462783819000   -273.976756001000
     147   49  2  -0.35000    251.094680648000    142.586678398000   -272.848283436000
     148   50  1   0.70000     96.013064768400   -246.294399921000    290.865250701000
     149   50  2  -0.35000     95.516681431500   -246.405308786000    291.907797010000
     150   50  2  -0.35000     96.509448105200   -246.183491055000    289.822704392000
     151   51  1   0.70000     18.815750014000     69.467786782200    345.757356283000
     152   51  2  -0.35000     19.773127690300     69.009106631500    345.289766180000
     153   51  2  -0.35000     17.858372337600     69.926466932800    346.224946386000
     154   52  1   0.70000   -263.630695752000    106.940975878000    201.370674800000
     155   52  2  -0.35000   -262.502089259000    106.806691233000    201.602655441000
     156   52  2  -0.35000   -264.759302246000    107.075260523000    201.138694160000
     157   53  1   0.70000    -19.077409789000    343.269772256000   -156.034625808000
     158   53  2  -0.35000    -18.756890235800    344.301008098000   -156.458205616000
     159   53  2  -0.35000    -19.397929342100    342.238536414000   -155.611045999000
     160   54  1   0.70000   -266.323664353000     77.409853353200    -73.458787646000
     161   54  2  -0.35000   -265.295522357000     77.010907538700    -73.818462880500
     162   54  2  -0.35000   -267.351806348000     77.808799167700    -73.099112411600
     163   55  1   0.70000   -244.798676343000   -336.027266873000   -106.939997278000
     164   55  2  -0.35000   -245.012737222000   -335.545769853000   -107.973408406000
     165   55  2  -0.35000   -244.584615464000   -336.508763893000   -105.906586150000
     166   56  1   0.70000     40.384309833300   -314.585638906000   -332.482632020000
     167   56  2  -0.35000     40.795735478300   -315.161851365000   -333.401494436000
     168   56  2  -0.35000     39.972884188300   -314.009426446000   -331.563769604000
     169   57  1   0.70000    260.342320051000   -148.181429963000    129.524078904000
     170   57  2  -0.35000    260.174228456000   -147.415333768000    130.378737805000
     171   57  2  -0.35000    260.510411646000   -148.947526157000    128.669420003000
     172   58  1   0.70000    262.816064803000    102.234574617000   -244.054476726000
     173   58  2  -0.35000    263.972692015000    102.307500899000   -244.004524254000
     174   58  2  -0.35000    261.659437591000    102.161648335000   -244.104429199000
     175   59  1   0.70000   -107.089547932000    155.575772581000   -264.759285886000
     176   59  2  -0.35000   -106.104170621000    156.069781257000   -264.397917676000
     177   59  2  -0.35000   -108.074925243000    155.081763905000   -265.120654096000
     178   60  1   0.70000     48.304456185300   -134.601992302000    -29.932559936500
     179   60  2  -0.35000     49.219261157300   -134.108019073000    -30.447071658800
     180   60  2  -0.35000     47.389651213300   -135.095965531000    -29.418048214100
     181   61  1   0.70000   -148.903652926000    192.300606751000    344.207948907000
     182   61  2  -0.35000   -148.792442152000    191.289765278000    343.649888265000
     183   61  2  -0.35000   -149.014863700000    193.311448224000    344.766009548000
     184   62  1   0.70000   -183.160598989000     12.796023930200   -170.958629360000
     185   62  2  -0.35000   -182.793207905000     12.375808190600   -171.975508175000
     186   62  2  -0.35000   -183.527990072000     13.216239669800   -169.941750545000
     187   63  1   0.70000    -98.593360958800    134.977127553000   -320.144394964000
     188   63  2  -0.35000    -97.914551833500    135.828072713000   -319.743507816000
     189   63  2  -0.35000    -99.272170084100    134.126182392000   -320.545282112000
     190   64  1   0.70000   -328.686476673000   -328.022387338000   -248.962128832000
     191   64  2  -0.35000   -328.570727755000   -326.968091410000   -248.492381788000
     192   64  2  -0.35000   -328.802225590000   -329.076683266000   -249.431875876000
     193   65  1   0.70000   -223.717963215000    199.128513194000     56.645850032900
     194   65  2  -0.35000   -223.932089351000    198.455362630000     57.565968675800
     195   65  2  -0.35000   -223.503837079000    199.801663757000     55.725731390000
     196   66  1   0.70000     -2.312482533400   -165.101324243000   -313.527778774000
     197   66  2  -0.35000     -1.869232531890   -165.000387587000   -314.594990668000
     198   66  2  -0.35000     -2.755732534910   -165.202260899000   -312.460566879000
     199   67  1   0.70000    140.636861034000    247.784901832000   -247.694916654000
     200   67  2  -0.35000    139.598298903000    247.434594510000   -248.074750145000
     201   67  2  -0.35000    141.675423164000    248.135209154000   -247.315083163000
     202   68  1   0.70000   -287.308670745000    168.658361602000   -134.860904093000
     203   68  2  -0.35000   -286.223883293000    168.851393555000   -134.498171615000
     204   68  2  -0.35000   -288.393458196000    168.465329650000   -135.223636571000
     205   69  1   0.70000    341.313967772000   -313.249523911000   -131.428995425000
     206   69  2  -0.35000    341.157947580000   -313.809057316000   -130.424913722000
     207   69  2  -0.35000    341.469987965000   -312.689990505000   -132.433077129000
     208   70  1   0.70000    -60.306263985100    158.933673746000    131.904958547000
     209   70  2  -0.35000    -61.258797093300    159.473040699000    131.521078399000
     210   70  2  -0.35000    -59.353730877000    158.394306793000    132.288838695000
     211   71  1   0.70000   -341.056471906000   -285.703356526000    342.290729145000
     212   71  2  -0.35000   -342.195025400000   -285.922335613000    342.327391113000
     213   71  2  -0.35000   -339.917918411000   -285.484377438000    342.254067177000
     214   72  1   0.70000     91.331452596300   -244.730642914000     94.165825567500
     215   72  2  -0.35000     91.117396393800   -244.139700280000     95.140795693200
     216   72  2  -0.35000     91.545508798900   -245.321585547000     93.190855441900
     217   73  1   0.70000   -199.172212630000   -154.639336575000     33.840909897400
     218   73  2  -0.35000   -199.675851669000   -154.914698650000     32.832880411200
     219   73  2  -0.35000   -198.668573590000   -154.363974499000     34.848939383700
     220   74  1   0.70000   -137.120943576000   -158.631935607000     68.033253426000
     221   74  2  -0.35000   -136.828974051000   -158.220017089000     69.077608217800
     222   74  2  -0.35000   -137.412913101000   -159.043854125000     66.988898634300
     223   75  1   0.70000   -223.544040669000    -93.299256965900    158.810919793000
     224   75  2  -0.35000   -222.419037436000    -93.401174737900    158.547138644000
     225   75  2  -0.35000   -224.669043902000    -93.197339193900    159.074700941000
     226   76  1   0.70000   -307.121221603000   -121.094783796000    -74.950936195600
     227   76  2  -0.35000   -308.017664200000   -121.405585657000    -75.618313804400
     228   76  2  -0.35000   -306.224779006000   -120.783981934000    -74.283558586800
     229   77  1   0.70000   -304.127330707000     45.163696279200    270.937587178000
     230   77  2  -0.35000   -303.949676532000     44.312624020100    270.169658142000
     231   77  2  -0.35000   -304.304984883000     46.014768538300    271.705516214000
     232   78  1   0.70000   -117.307343716000   -285.827997808000    134.894038687000
     233   78  2  -0.35000   -117.399566122000   -284.680847980000    135.039442604000
     234   78  2  -0.35000   -117.215121310000   -286.975147636000    134.748634769000
     235   79  1   0.70000   -138.939178265000     67.841432807200   -131.394459146000
     236   79  2  -0.35000   -139.583489554000     68.643086055500   -131.930943100000
     237   79  2  -0.35000   -138.294866976000     67.039779559000   -130.857975193000
     238   80  1   0.70000    -83.614558050200   -233.272726398000     82.033438695200
     239   80  2  -0.35000    -83.780926215000   -233.303848008000     83.181024456400
     240   80  2  -0.35000    -83.448189885500   -233.241604787000     80.885852934100
     241   81  1   0.70000    314.156409002000    -80.145007015600    317.144763518000
     242   81  2  -0.35000    313.674851938000    -80.036789381900    318.194521460000
     243   81  2  -0.35000    314.637966066000    -80.253224649200    316.095005575000
     244   82  1   0.70000    299.543429957000     90.853683149500   -267.817936006000
     245   82  2  -0.35000    299.697875054000     90.262897092100   -266.831671059000
     246   82  2  -0.35000    299.388984860000     91.444469206800   -268.804200954000
     247   83  1   0.70000    181.295651331000   -211.216752957000      0.605409766620
     248   83  2  -0.35000    180.200158680000   -211.399417025000      0.270552050998
     249   83  2  -0.35000    182.391143982000   -211.034088888000      0.940267482242
     250   84  1   0.70000    303.530816253000    223.736729152000     67.806583221500
     251   84  2  -0.35000    303.274004637000    224.468959376000     68.668839965100
     252   84  2  -0.35000    303.787627869000    223.004498927000     66.944326477900
     253   85  1   0.70000    212.833659532000    209.830343022000    223.466941249000
     254   85  2  -0.35000    213.672282277000    209.613616374000    224.238524979000
     255   85  2  -0.35000    211.995036788000    210.047069670000    222.695357519000
     256   86  1   0.70000   -225.664118428000    197.414113926000   -262.456777223000
     257   86  2  -0.35000   -224.791683393000    198.170828496000   -262.565589768000
     258   86  2  -0.35000   -226.536553462000    196.657399356000   -262.347964678000
     259   87  1   0.70000    215.243337685000   -283.255848527000    224.798712875000
     260   87  2  -0.35000    216.037655858000   -283.533992098000    224.000405419000
     261   87  2  -0.35000    214.449019513000   -282.977704956000    225.597020332000
     262   88  1   0.70000   -120.974580977000   -176.163901634000   -108.899093371000
     263   88  2  -0.35000   -121.043061494000   -176.132642207000   -110.056648237000
     264   88  2  -0.35000   -120.906100459000   -176.195161061000   -107.741538505000
     265   89  1   0.70000   -332.468822074000   -122.078317231000    195.115775567000
     266   89  2  -0.35000   -332.821506519000   -123.135357942000    194.793473506000
     267   89  2  -0.35000   -332.116137629000   -121.021276521000    195.438077628000
     268   90  1   0.70000    323.456025607000   -245.813762828000    301.664859908000
     269   90  2  -0.35000    322.479004635000   -245.821912466000    302.290130733000
     270   90  2  -0.35000    324.433046578000   -245.805613190000    301.039589082000
     271   91  1   0.70000    114.116800022000    164.515120847000    130.623824186000
     272   91  2  -0.35000    114.880296819000    164.479951266000    131.496427041000
     273   91  2  -0.35000    113.353303226000    164.550290428000    129.751221332000
     274   92  1   0.70000    253.600669980000     33.769484231500    321.802615158000
     275   92  2  -0.35000    254.418707372000     33.501643188500    321.025006002000
     276   92  2  -0.35000    252.782632587000     34.037325274500    322.580224314000
     277   93  1   0.70000   -218.421656850000    105.857206406000    143.853543080000
     278   93  2  -0.35000   -218.819814957000    106.863769818000    143.436529628000
     279   93  2  -0.35000   -218.023498743000    104.850642994000    144.270556532000
     280   94  1   0.70000    161.201121837000    114.224590983000   -337.495945663000
     281   94  2  -0.35000    160.218131619000    113.859692716000   -337.992110439000
     282   94  2  -0.35000    162.184112056000    114.589489250000   -336.999780887000
     283   95  1   0.70000    122.390146969000    333.480574409000    177.612176958000
     284   95  2  -0.35000    122.749959159000    333.383730862000    176.513652259000
     285   95  2  -0.35000    122.030334780000    333.577417956000    178.710701658000
     286   96  1   0.70000   -148.474431289000    -43.396611301400    -44.991322121500
     287   96  2  -0.35000   -148.823096521000    -43.946746830500    -45.951209331300
     288   96  2  -0.35000   -148.125766057000    -42.846475772400    -44.031434911600
     289   97  1   0.70000   -234.200789334000     84.146782513700   -141.655791188000
     290   97  2  -0.35000   -233.053296112000     83.995096198400   -141.579302191000
     291   97  2  -0.35000   -235.348282556000     84.298468828900   -141.732280185000
     292   98  1   0.70000    -28.408072147100   -197.416932662000    326.826337366000
     293   98  2  -0.35000    -28.200074733800   -198.320754497000    326.129599850000
     294   98  2  -0.35000    -28.616069560400   -196.513110826000    327.523074882000
     295   99  1   0.70000   -148.536167752000   -231.604710868000    270.304532496000
     296   99  2  -0.35000   -147.667417556000   -232.328655867000    270.562944444000
     297   99  2  -0.35000   -149.404917948000   -230.880765869000    270.046120548000
     298  100  1   0.70000    344.120377217000    177.987013457000    -59.230537095200
     299  100  2  -0.35000    343.910236062000    178.680894460000    -60.136058960800
     300  100  2  -0.35000    344.330518373000    177.293132455000    -58.325015229600
     301  101  1   0.70000    142.686951271000   -299.633581882000   -205.428790675000
     302  101  2  -0.35000    141.739975884000   -299.015874198000   -205.169416748000
     303  101  2  -0.35000    143.633926657000   -300.251289566000   -205.688164603000
     304  102  1   0.70000   -114.177173656000     99.451846537100   -201.380878113000
     305  102  2  -0.35000   -114.517651508000     98.495583746600   -201.942337201000
     306  102  2  -0.35000   -113.836695804000    100.408109328000   -200.819419024000
     307  103  1   0.70000   -143.814503756000    111.807650707000   -319.164264469000
     308  103  2  -0.35000   -143.424919014000    111.736770418000   -320.254585392000
     309  103  2  -0.35000   -144.204088498000    111.878530996000   -318.073943547000
     310  104  1   0.70000     11.459589825800    -93.737565303200   -160.682098923000
     311  104  2  -0.35000     11.478145464100    -93.924422512000   -159.537398058000
     312  104  2  -0.35000     11.441034187600    -93.550708094400   -161.826799789000
     313  105  1   0.70000    256.954678725000   -105.071996287000    -12.447726199400
     314  105  2  -0.35000    257.061978444000   -105.705653571000    -13.413420362200
     315  105  2  -0.35000    256.847379006000   -104.438339002000    -11.482032036700
     316  106  1   0.70000    187.450006733000     -0.935383973102     65.626717785200
     317  106  2  -0.35000    186.951329309000     -0.622478084705     66.626223028800
     318  106  2  -0.35000    187.948684157000     -1.248289861500     64.627212541600
     319  107  1   0.70000    269.261646388000   -131.661639619000    -20.638800398700
     320  107  2  -0.35000    269.396962249000   -130.738537325000    -19.949473356000
     321  107  2  -0.35000    269.126330527000   -132.584741914000    -21.328127441300
     322  108  1   0.70000    285.007371854000    167.993075332000    115.139903989000
     323  108  2  -0.35000    285.482120025000    167.131614313000    115.754801613000
     324  108  2  -0.35000    284.532623683000    168.854536350000    114.525006365000
     325  109  1   0.70000   -315.385846661000   -334.727572961000     -1.923799417770
     326  109  2  -0.35000   -314.569071856000   -335.438532824000     -2.339750125780
     327  109  2  -0.35000   -316.202621467000   -334.016613099000     -1.507848709750
     328  110  1   0.70000    224.766294425000    260.071602820000   -121.252683025000
     329  110  2  -0.35000    225.495395546000    259.210418070000   -120.983661873000
     330  110  2  -0.35000    224.037193304000    260.932787571000   -121.521704178000
     331  111  1   0.70000     99.579184346600     16.260442526800     88.211367438400
     332  111  2  -0.35000     98.741087728900     15.459179524700     88.177137907000
     333  111  2  -0.35000    100.417280964000     17.061705528800     88.245596969900
     334  112  1   0.70000   -105.182097880000     72.338540338800   -224.615834342000
     335  112  2  -0.35000   -104.464795944000     72.416330090500   -223.707524546000
     336  112  2  -0.35000   -105.899399816000     72.260750587200   -225.524144139000
     337  113  1   0.70000    308.628179613000    272.624648113000    317.080511374000
     338  113  2  -0.35000    309.234183743000    272.260777609000    316.160752030000
     339  113  2  -0.35000    308.022175482000    272.988518617000    318.000270718000
     340  114  1   0.70000    326.672010189000     15.002221622800   -335.801519750000