LAMMPS Atom File

         3000 atoms
         2000 bonds
         1000 angles
           0 dihedrals
           0 impropers

           2 atom types
           1 bond types
           1 angle types

         0.0  93.9881326695 xlo xhi
         0.0  93.9881326695 ylo yhi
         0.0  93.9881326695 zlo zhi

Masses

         1   12.01070
         2   15.99990

Atoms

       1    1  1   0.70000    -26.662445246400     34.988434115700    -35.921926087600
       2    1  2  -0.35000    -25.871164847700     35.832082581400    -35.833990900500
       3    1  2  -0.35000    -27.453725645000     34.144785650100    -36.009861274700
       4    2  1   0.70000     44.507614286600     18.865719471800    -43.894260617900
       5    2  2  -0.35000     44.721467661700     17.730012695300    -43.994444706900
       6    2  2  -0.35000     44.293760911400     20.001426248300    -43.794076528900
       7    3  1   0.70000      7.771713515210     33.906326809100      4.476642313280
       8    3  2  -0.35000      6.694768718100     33.798442494000      4.059328428390
       9    3  2  -0.35000      8.848658312320     34.014211124300      4.893956198160
      10    4  1   0.70000    -10.735713780200     20.326252253300    -46.534025170300
      11    4  2  -0.35000    -10.482342330200     20.645787213600    -45.448069223900
      12    4  2  -0.35000    -10.989085230200     20.006717293000    -47.619981116685
      13    5  1   0.70000    -41.618130233400     28.873160815600    -23.442497952800
      14    5  2  -0.35000    -42.503019685300     29.175215490700    -22.755960531300
      15    5  2  -0.35000    -40.733240781400     28.571106140400    -24.129035374300
      16    6  1   0.70000     19.916171214700     -0.846878935210    -10.637172085400
      17    6  2  -0.35000     19.999416651500     -1.605004704680     -9.763149479920
      18    6  2  -0.35000     19.832925777900     -0.088753165744    -11.511194690900
      19    7  1   0.70000      8.062020121030    -38.301042533400     41.982576312600
      20    7  2  -0.35000      7.532657410290    -39.154298302200     41.401775388400
      21    7  2  -0.35000      8.591382831770    -37.447786764600     42.563377236700
      22    8  1   0.70000    -13.719768470500    -44.971952399700    -22.941139105100
      23    8  2  -0.35000    -13.676021378400    -45.883358026700    -22.224880789200
      24    8  2  -0.35000    -13.763515562700    -44.060546772800    -23.657397421000
      25    9  1   0.70000    -12.341226960800      4.859415405480     26.112498817800
      26    9  2  -0.35000    -11.955061468200      4.021118935610     26.815161781800
      27    9  2  -0.35000    -12.727392453400      5.697711875340     25.409835853800
      28   10  1   0.70000     26.042451651500    -25.385767752000    -44.525219830200
      29   10  2  -0.35000     25.791172726100    -25.692676817300    -45.615295849200
      30   10  2  -0.35000     26.293730576800    -25.078858686700    -43.435143811200
      31   11  1   0.70000    -24.479628096400     43.708310872000      7.846503204460
      32   11  2  -0.35000    -24.082736505200     43.598649859200      8.930962298700
      33   11  2  -0.35000    -24.876519687600     43.817971884900      6.762044110220
      34   12  1   0.70000    -22.769352602100     30.681088890200      3.035310176880
      35   12  2  -0.35000    -22.730156342200     31.442676682100      2.161211962430
      36   12  2  -0.35000    -22.808548862000     29.919501098400      3.909408391330
      37   13  1   0.70000     29.192098370000     -0.660050498630     11.716506065200
      38   13  2  -0.35000     29.189264595900     -0.743172334821     12.873520641700
      39   13  2  -0.35000     29.194932144100     -0.576928662439     10.559491488800
      40   14  1   0.70000    -40.447575904300    -19.388273869600     38.716724538300
      41   14  2  -0.35000    -41.122361735200    -18.918443873800     37.898480163200
      42   14  2  -0.35000    -39.772790073300    -19.858103865400     39.534968913500
      43   15  1   0.70000     43.763327181600     28.638458021000    -29.737329691700
      44   15  2  -0.35000     43.214319048200     27.619340829400    -29.662561922300
      45   15  2  -0.35000     44.312335315000     29.657575212600    -29.812097461100
      46   16  1   0.70000    -23.848562549900     25.202291763900     38.318125884400
      47   16  2  -0.35000    -23.648436876200     24.429924811900     37.476105097200
      48   16  2  -0.35000    -24.048688223700     25.974658716000     39.160146671600
      49   17  1   0.70000     -3.069568016380     32.766601600000     25.994746199700
      50   17  2  -0.35000     -2.781599618680     31.850467002300     26.645416316400
      51   17  2  -0.35000     -3.357536414080     33.682736197700     25.344076083000
      52   18  1   0.70000      1.156464002540     43.229032470000    -36.660687230300
      53   18  2  -0.35000      0.490362715699     43.249558267800    -35.711220133800
      54   18  2  -0.35000      1.822565289380     43.208506672300    -37.610154326800
      55   19  1   0.70000     43.546063976400     10.652650374700     37.507356965000
      56   19  2  -0.35000     43.045840098200     11.180889452900     36.603841858300
      57   19  2  -0.35000     44.046287854600     10.124411296600     38.410872071700
      58   20  1   0.70000    -28.329068011500     39.507395327200    -35.030050804400
      59   20  2  -0.35000    -29.186286654800     40.143316436200    -34.575759553400
      60   20  2  -0.35000    -27.471849368100     38.871474218300    -35.484342055300
      61   21  1   0.70000    -21.851894874900    -42.007070364300     10.163011881800
      62   21  2  -0.35000    -21.693023184000    -43.025005140300     10.696086527300
      63   21  2  -0.35000    -22.010766565800    -40.989135588300      9.629937236270
      64   22  1   0.70000     -2.754082707170    -40.082433238600    -44.090342824900
      65   22  2  -0.35000     -2.761592464710    -39.032517664100    -44.583517124600
      66   22  2  -0.35000     -2.746572949640    -41.132348813100    -43.597168525100
      67   23  1   0.70000     -0.762771264022     10.959734221200     29.541079859400
      68   23  2  -0.35000     -0.166621865986     11.786254543300     30.095218878300
      69   23  2  -0.35000     -1.358920662060     10.133213899000     28.986940840500
      70   24  1   0.70000     -1.426903743360     -9.036181988000     -7.916163690510
      71   24  2  -0.35000     -0.578080831177     -8.519957531120     -7.317321496040
      72   24  2  -0.35000     -2.275726655530     -9.552406444880     -8.515005884980
      73   25  1   0.70000      8.418267324190     37.500498427900      6.464673095490
      74   25  2  -0.35000      7.481648199430     37.692497040100      5.807800849130
      75   25  2  -0.35000      9.354886448950     37.308499815700      7.121545341860
      76   26  1   0.70000    -18.257064125500     18.751176435900    -36.751404475000
      77   26  2  -0.35000    -17.394023625300     18.622272229500    -35.987110813700
      78   26  2  -0.35000    -19.120104625600     18.880080642300    -37.515698136300
      79   27  1   0.70000     45.897082705400    -33.994109655800     36.689036934000
      80   27  2  -0.35000     45.605786139500    -33.218893579300     37.501309268500
      81   27  2  -0.35000     46.188379271400    -34.769325732300     35.876764599500
      82   28  1   0.70000     -7.970188694130      0.692733236242     25.832346245800
      83   28  2  -0.35000     -8.957673809530      0.886377657718     25.255306398900
      84   28  2  -0.35000     -6.982703578730      0.499088814766     26.409386092700
      85   29  1   0.70000     37.197029385400    -16.736673637900      1.707729687780
      86   29  2  -0.35000     36.317557515400    -17.491726467600      1.662735751320
      87   29  2  -0.35000     38.076501255300    -15.981620808300      1.752723624230
      88   30  1   0.70000     41.203908414000     31.760748541800     43.317803880300
      89   30  2  -0.35000     40.545930313300     31.137365867000     42.593884782800
      90   30  2  -0.35000     41.861886514700     32.384131216500     44.041722977800
      91   31  1   0.70000    -12.862732239500    -22.038081832000    -42.607770626700
      92   31  2  -0.35000    -13.250859986900    -23.121590088700    -42.462971767900
      93   31  2  -0.35000    -12.474604492200    -20.954573575400    -42.752569485400
      94   32  1   0.70000     18.217263176400    -38.272447069800    -37.384679358300
      95   32  2  -0.35000     17.389605981000    -38.426619462300    -36.586672816700
      96   32  2  -0.35000     19.044920371700    -38.118274677300    -38.182685899800
      97   33  1   0.70000    -43.313686214000    -13.537658090900    -33.909276740600
      98   33  2  -0.35000    -42.163914156700    -13.405834091500    -33.988312488600
      99   33  2  -0.35000    -44.463458271300    -13.669482090200    -33.830240992700
     100   34  1   0.70000     28.063295931800    -37.422477932800      6.684900843640
     101   34  2  -0.35000     27.351273700800    -37.836439152500      5.868040726400
     102   34  2  -0.35000     28.775318162800    -37.008516713000      7.501760960870
     103   35  1   0.70000     17.352159293800    -44.379086608300    -27.804737681400
     104   35  2  -0.35000     17.657615372700    -44.779187295100    -28.849829076600
     105   35  2  -0.35000     17.046703214900    -43.978985921500    -26.759646286200
     106   36  1   0.70000      8.404952298190     22.018102583900    -25.043552861900
     107   36  2  -0.35000      8.652062705200     23.149647626500    -25.107913279400
     108   36  2  -0.35000      8.157841891190     20.886557541300    -24.979192444300
     109   37  1   0.70000     34.046394580400    -44.230503035100     27.284301846100
     110   37  2  -0.35000     34.038706852300    -44.381657721900     26.134217866800
     111   37  2  -0.35000     34.054082308600    -44.079348348300     28.434385825400
     112   38  1   0.70000     -9.392723186280    -43.654588626500     25.092955241800
     113   38  2  -0.35000     -9.167376452200    -44.527553852300     25.822852881100
     114   38  2  -0.35000     -9.618069920360    -42.781623400600     24.363057602500
     115   39  1   0.70000     33.604583304900     -3.968399478560    -45.197796806500
     116   39  2  -0.35000     33.511140033600     -3.182388366520    -46.045767847700
     117   39  2  -0.35000     33.698026576200     -4.754410590610    -44.349825765200
     118   40  1   0.70000    -14.586433964500    -28.086123306100     -6.082669315090
     119   40  2  -0.35000    -13.915447934300    -27.193030623300     -6.395340399660
     120   40  2  -0.35000    -15.257419994700    -28.979215989000     -5.769998230520
     121   41  1   0.70000     32.895208512400    -39.963494215200     14.058051087200
     122   41  2  -0.35000     31.808836423900    -39.688608624200     13.758328553500
     123   41  2  -0.35000     33.981580600900    -40.238379806100     14.357773620900
     124   42  1   0.70000     32.391547610900     33.081135887300    -12.162420873400
     125   42  2  -0.35000     33.018576502000     32.348599498400    -11.517575769000
     126   42  2  -0.35000     31.764518719800     33.813672276200    -12.807265977800
     127   43  1   0.70000    -30.383717107800    -20.128594991400    -25.215312031200
     128   43  2  -0.35000    -31.163190339100    -20.853818949200    -25.675824455300
     129   43  2  -0.35000    -29.604243876500    -19.403371033700    -24.754799607100
     130   44  1   0.70000    -36.360654194700    -45.992253320200      5.294871665340
     131   44  2  -0.35000    -35.543490557100    -46.793312832200      5.104747370380
     132   44  2  -0.35000    -37.177817832300    -45.191193808200      5.484995960300
     133   45  1   0.70000     19.958091344200    -19.041227969600    -19.807019874200
     134   45  2  -0.35000     19.818237264800    -18.627545185200    -20.881686050400
     135   45  2  -0.35000     20.097945423600    -19.454910754100    -18.732353698000
     136   46  1   0.70000     41.977521436600     11.154207215100    -15.832671050600
     137   46  2  -0.35000     41.115737320400     11.648644668700    -16.431386126000
     138   46  2  -0.35000     42.839305552900     10.659769761600    -15.233955975100
     139   47  1   0.70000     -6.013796056990     -0.797333260518      1.598698856410
     140   47  2  -0.35000     -7.111878365550     -0.849626561376      1.228454809460
     141   47  2  -0.35000     -4.915713748420     -0.745039959660      1.968942903360
     142   48  1   0.70000     22.177038693600    -10.021062072100     21.441902358700
     143   48  2  -0.35000     21.849996494600     -9.138847386720     20.763418277200
     144   48  2  -0.35000     22.504080892700    -10.903276757600     22.120386440300
     145   49  1   0.70000     31.659746204900     20.403737834900    -39.289191167800
     146   49  2  -0.35000     32.744179450800     20.808107594900    -39.211155071300
     147   49  2  -0.35000     30.575312959000     19.999368074800    -39.367227264300
     148   50  1   0.70000     11.688301596200    -34.163158676200     38.465543868700
     149   50  2  -0.35000     12.641825560300    -34.771931859700     38.722034142800
     150   50  2  -0.35000     10.734777632000    -33.554385492600     38.209053594700
     151   51  1   0.70000      4.641328709490     13.836070955700     43.437423815100
     152   51  2  -0.35000      4.624483757030     13.943000585600     42.282485590800
     153   51  2  -0.35000      4.658173661950     13.729141325700     44.592362039300
     154   52  1   0.70000    -34.276030422100     17.696378396000     29.156789566400
     155   52  2  -0.35000    -34.207767283800     18.752731287000     29.631193101000
     156   52  2  -0.35000    -34.344293560300     16.640025505000     28.682386031900
     157   53  1   0.70000     -1.582926212250     41.687210414700    -21.116294229000
     158   53  2  -0.35000     -1.196007447980     41.633408615700    -22.208539273000
     159   53  2  -0.35000     -1.969844976510     41.741012213700    -20.024049184900
     160   54  1   0.70000    -35.770056806600     10.551744422000     -9.570184890500
     161   54  2  -0.35000    -34.654242566100     10.863213175800     -9.510638302120
     162   54  2  -0.35000    -36.885871047000     10.240275668200     -9.629731478880
     163   55  1   0.70000    -30.226470647800     44.710645568000    -15.181683930200
     164   55  2  -0.35000    -30.440531526600     45.192142588200    -16.215095058300
     165   55  2  -0.35000    -30.012409769000     44.229148547800    -14.148272802100
     166   56  1   0.70000      9.522147576950    -41.465392305000    -46.834693940000
     167   56  2  -0.35000      8.566249676580    -41.045894440600    -47.340540503485
     168   56  2  -0.35000     10.478045477300    -41.884890169400    -46.328847376500
     169   57  1   0.70000     34.930971216700    -20.477830359100     16.964802498000
     170   57  2  -0.35000     34.383165617200    -20.543825642600     17.985171866300
     171   57  2  -0.35000     35.478776816200    -20.411835075600     15.944433129700
     172   58  1   0.70000     36.130689124900     12.589935319500    -30.836597199100
     173   58  2  -0.35000     37.170413560200     12.127663664700    -31.062158755700
     174   58  2  -0.35000     35.090964689600     13.052206974300    -30.611035642500
     175   59  1   0.70000    -13.293385098600     21.974410682800    -33.940173653400
     176   59  2  -0.35000    -12.879100862000     21.587244036300    -32.928209939000
     177   59  2  -0.35000    -13.707669335300     22.361577329300    -34.952137367700
     178   60  1   0.70000      5.915814953840    -18.270976875000     -4.080593080820
     179   60  2  -0.35000      5.757393926070    -19.420104996800     -4.077884298410
     180   60  2  -0.35000      6.074235981610    -17.121848753100     -4.083301863240
     181   61  1   0.70000    -22.414548467300     21.328287367000    -43.921944389900
     182   61  2  -0.35000    -22.443208529000     21.582456728100    -42.790495523700
     183   61  2  -0.35000    -22.385888405500     21.074118006000    -45.053393256100
     184   62  1   0.70000    -24.121640545100      3.975136257010    -20.658905164800
     185   62  2  -0.35000    -23.522172174700      4.409816233970    -21.551816689300
     186   62  2  -0.35000    -24.721108915600      3.540456280040    -19.765993640400
     187   63  1   0.70000    -13.816389552600     16.714935903000     45.601683642200
     188   63  2  -0.35000    -14.258963606800     17.294698655900     46.503683285800
     189   63  2  -0.35000    -13.373815498400     16.135173150100     44.699683998700
     190   64  1   0.70000    -46.140120062200    -43.160008771400    -34.609571039600
     191   64  2  -0.35000    -46.645604276800    -43.658458626500    -33.692165212900
     192   64  2  -0.35000    -45.634635847700    -42.661558916300    -35.526976866200
     193   65  1   0.70000    -29.719830420100     24.571671809000      7.149809311850
     194   65  2  -0.35000    -29.703184407900     25.218348701200      6.186932420790
     195   65  2  -0.35000    -29.736476432300     23.924994916800      8.112686202910
     196   66  1   0.70000     -0.806676052351    -18.994277717100    -42.947846416500
     197   66  2  -0.35000     -0.363426050842    -18.893341061500    -44.015058311000
     198   66  2  -0.35000     -1.249926053860    -19.095214372800    -41.880634522100
     199   67  1   0.70000     24.289114347500     38.929856291600    -31.003492899100
     200   67  2  -0.35000     23.231028944800     39.259880002400    -31.345749573400
     201   67  2  -0.35000     25.347199750100     38.599832580900    -30.661236224700
     202   68  1   0.70000    -37.656265529900     26.340594396000    -22.066002981200
     203   68  2  -0.35000    -38.623488552000     26.460856146500    -21.437022268400
     204   68  2  -0.35000    -36.689042507900     26.220332645500    -22.694983693900
     205   69  1   0.70000     46.862803566500    -42.232485236800    -20.809181312200
     206   69  2  -0.35000     46.602831781200    -41.769190362100    -21.840380870900
     207   69  2  -0.35000     47.122775351785    -42.695780111500    -19.777981753500
     208   70  1   0.70000     -9.499212454790     23.152118296900     16.230948416100
     209   70  2  -0.35000     -9.388751500240     22.067514610600     15.834674242100
     210   70  2  -0.35000     -9.609673409340     24.236721983300     16.627222590200
     211   71  1   0.70000    -45.427437463200    -40.491950706200    -45.828066324800
     212   71  2  -0.35000    -45.747186035800    -41.485338530000    -45.321567083000
     213   71  2  -0.35000    -45.107688890700    -39.498562882400    -46.334565566500
     214   72  1   0.70000     10.399110171500    -37.590560825100      5.907704378510
     215   72  2  -0.35000     11.039907116500    -37.110365210100      5.068424063770
     216   72  2  -0.35000      9.758313226630    -38.070756440100      6.746984693240
     217   73  1   0.70000    -27.097938593500    -23.273415818300      3.615933143320
     218   73  2  -0.35000    -26.343114454400    -24.141918548400      3.469156010660
     219   73  2  -0.35000    -27.852762732600    -22.404913088100      3.762710275990
     220   74  1   0.70000    -22.815074349700    -25.426861016500      9.326221617790
     221   74  2  -0.35000    -23.410729310000    -25.935791412300     10.181665958700
     222   74  2  -0.35000    -22.219419389400    -24.917930620600      8.470777276900
     223   75  1   0.70000    -30.140950800400     -8.716666647560     20.440202779800
     224   75  2  -0.35000    -29.322317924900     -8.213871984690     21.090308726700
     225   75  2  -0.35000    -30.959583675900     -9.219461310440     19.790096833000
     226   76  1   0.70000    -40.539584599000    -16.836585370700     -8.521098608650
     227   76  2  -0.35000    -41.359410313300    -17.270626178000     -7.824611440250
     228   76  2  -0.35000    -39.719758884700    -16.402544563300     -9.217585777050
     229   77  1   0.70000    -41.560779751100      6.251753882390     35.908238070400
     230   77  2  -0.35000    -40.714261424500      5.840420119540     36.586331912200
     231   77  2  -0.35000    -42.407298077700      6.663087645250     35.230144228600
     232   78  1   0.70000     -7.680553370110    -32.506348114400     13.971552053500
     233   78  2  -0.35000     -7.870019215720    -32.890826218600     15.049457096100
     234   78  2  -0.35000     -7.491087524490    -32.121870010300     12.893647011000
     235   79  1   0.70000    -18.427059795100      8.516505799870    -19.246034053500
     236   79  2  -0.35000    -17.306721365300      8.391462214380    -19.519540734000
     237   79  2  -0.35000    -19.547398225000      8.641549385360    -18.972527373000
     238   80  1   0.70000    -11.224006581100    -30.911265080800     11.053359545900
     239   80  2  -0.35000    -11.163525249500    -31.727555993000     11.875315235300
     240   80  2  -0.35000    -11.284487912600    -30.094974168600     10.231403856600
     241   81  1   0.70000     40.119402008800     -9.622165457370     43.607251632500
     242   81  2  -0.35000     41.247354222800     -9.694466507470     43.346298838000
     243   81  2  -0.35000     38.991449794700     -9.549864407270     43.868204427100
     244   82  1   0.70000     38.911115655400      8.454992786780    -35.902045245100
     245   82  2  -0.35000     37.890734412700      7.936888868060    -36.091756733800
     246   82  2  -0.35000     39.931496898100      8.973096705500    -35.712333756400
     247   83  1   0.70000     23.740691366600    -29.128425440100     -0.935033505157
     248   83  2  -0.35000     23.220199506400    -28.104011449000     -0.776086349407
     249   83  2  -0.35000     24.261183226800    -30.152839431200     -1.093980660910
     250   84  1   0.70000     40.095141269700     30.790755130500      5.427578945760
     251   84  2  -0.35000     39.838329653800     31.522985355200      6.289835689350
     252   84  2  -0.35000     40.351952885700     30.058524905700      4.565322202170
     253   85  1   0.70000     30.579281293800     31.241676442700     32.498301259900
     254   85  2  -0.35000     30.252914234700     30.816685653600     31.469482825000
     255   85  2  -0.35000     30.905648352800     31.666667231800     33.527119694800
     256   86  1   0.70000    -31.791998718500     26.285194945700    -34.706162647600
     257   86  2  -0.35000    -32.756755070900     25.975497560600    -34.141421370400
     258   86  2  -0.35000    -30.827242366000     26.594892330900    -35.270903924700
     259   87  1   0.70000     31.001386406400    -40.283431959400     29.721130870300
     260   87  2  -0.35000     31.694850956200    -39.910695869000     28.869206739200
     261   87  2  -0.35000     30.307921856600    -40.656168049700     30.573055001400
     262   88  1   0.70000    -13.900067792200    -23.714421462300    -17.228932826800
     263   88  2  -0.35000    -12.846094086600    -24.174974914700    -17.379365354600
     264   88  2  -0.35000    -14.954041497700    -23.253868009900    -17.078500299000
     265   89  1   0.70000    -44.113191338200    -17.152728673500     28.558763989400
     266   89  2  -0.35000    -45.081104409400    -17.622229738000     28.992714490000
     267   89  2  -0.35000    -43.145278267000    -16.683227609000     28.124813488800
     268   90  1   0.70000     44.098448668700    -34.248615987600     39.730251163800
     269   90  2  -0.35000     43.172106925300    -33.638280837800     39.391161235800
     270   90  2  -0.35000     45.024790412100    -34.858951137500     40.069341091800
     271   91  1   0.70000     18.549592406900     22.665454225400     15.368200969500
     272   91  2  -0.35000     19.277863969100     21.763699994300     15.413586410300
     273   91  2  -0.35000     17.821320844600     23.567208456500     15.322815528800
     274   92  1   0.70000     34.473736112800      5.296702576070     45.158320716300
     275   92  2  -0.35000     33.512682588300      5.765293283540     45.608208337800
     276   92  2  -0.35000     35.434789637300      4.828111868600     44.708433094900
     277   93  1   0.70000    -30.354430094900     14.601592158700     18.660636163700
     278   93  2  -0.35000    -29.742894370100     15.581138506800     18.550577046800
     279   93  2  -0.35000    -30.965965819600     13.622045810600     18.770695280600
     280   94  1   0.70000     23.549027957200     16.039278800600    -44.761468923200
     281   94  2  -0.35000     22.455132135800     16.374132670000    -44.953471053700
     282   94  2  -0.35000     24.642923778600     15.704424931300    -44.569466792700
     283   95  1   0.70000     16.290973601500     44.869856502700     22.974090574500
     284   95  2  -0.35000     15.293492162400     45.270801998900     23.409835325000
     285   95  2  -0.35000     17.288455040700     44.468911006400     22.538345823900
     286   96  1   0.70000    -17.125453993100     -0.529453904853     -6.280268944980
     287   96  2  -0.35000    -17.474119225100     -1.079589433920     -7.240156154840
     288   96  2  -0.35000    -16.776788761000      0.020681624211     -5.320381735130
     289   97  1   0.70000    -32.408608087400     11.633852798500    -18.722873012700
     290   97  2  -0.35000    -31.647643044000     11.059922478300    -19.384035769000
     291   97  2  -0.35000    -33.169573130800     12.207783118600    -18.061710256400
     292   98  1   0.70000     -3.736920448370    -24.987822579900     43.978907914000
     293   98  2  -0.35000     -2.787683633350    -25.654490606500     43.968748617400
     294   98  2  -0.35000     -4.686157263390    -24.321154553300     43.989067210600
     295   99  1   0.70000    -20.207079220100    -35.449988421600     38.440268648100
     296   99  2  -0.35000    -20.674724624300    -36.506458726600     38.544087097800
     297   99  2  -0.35000    -19.739433815900    -34.393518116500     38.336450198400
     298  100  1   0.70000     45.583825709800     20.468008600200     -6.796105746740
     299  100  2  -0.35000     45.373684554100     21.161889602700     -7.701627612350
     300  100  2  -0.35000     45.793966865400     19.774127597700     -5.890583881130
     301  101  1   0.70000     22.224364806700    -41.717137250400    -31.293722646600
     302  101  2  -0.35000     22.581512190600    -40.841379699400    -30.622086987900
     303  101  2  -0.35000     21.867217422900    -42.592894801400    -31.965358305300
     304  102  1   0.70000    -13.619450888100     13.315836439400    -27.589644362900
     305  102  2  -0.35000    -12.890654170700     13.812350792400    -28.343254900200
     306  102  2  -0.35000    -14.348247605500     12.819322086400    -26.836033825600
     307  103  1   0.70000    -20.935573142400     14.834248730100    -45.709933234200
     308  103  2  -0.35000    -21.163960913400     15.281456800500    -44.664254522700
     309  103  2  -0.35000    -20.707185371400     14.387040659700    -46.755611945800
     310  104  1   0.70000     -0.511563215871     -6.831103258640    -24.954607164800
     311  104  2  -0.35000      0.471560589278     -6.234917351590    -24.800886808400
     312  104  2  -0.35000     -1.494687021020     -7.427289165700    -25.108327521300
     313  105  1   0.70000     33.522937697000    -11.248958817700     -0.852891922666
     314  105  2  -0.35000     34.165752691300    -10.373011902000     -0.446559689034
     315  105  2  -0.35000     32.880122702800    -12.124905733400     -1.259224156300
     316  106  1   0.70000     23.569950831600      2.159429716850      7.013444517930
     317  106  2  -0.35000     24.716654769400      2.147906718160      7.188193765470
     318  106  2  -0.35000     22.423246893800      2.170952715540      6.838695270390
     319  107  1   0.70000     36.406055003800    -19.497688871000     -2.891236948610
     320  107  2  -0.35000     35.595163391500    -19.255064453200     -2.098023115580
     321  107  2  -0.35000     37.216946616200    -19.740313288900     -3.684450781640
     322  108  1   0.70000     36.332416347900     22.349117329100     15.390616777500
     323  108  2  -0.35000     35.520627297800     22.732429061200     14.655993980300
     324  108  2  -0.35000     37.144205397900     21.965805597000     16.125239574700
     325  109  1   0.70000    -42.197656538700    -45.149164283000      0.993463748351
     326  109  2  -0.35000    -43.025641307600    -45.334541068100      1.784461011390
     327  109  2  -0.35000    -41.369671769900    -44.963787497900      0.202466485316
     328  110  1   0.70000     32.857092619600     33.259187842400    -17.790980452600
     329  110  2  -0.35000     32.248059165600     32.436659142500    -18.336988501900
     330  110  2  -0.35000     33.466126073500     34.081716542300    -17.244972403300
     331  111  1   0.70000     11.292923128100      2.355812914990     14.637441674300
     332  111  2  -0.35000     10.454826510300      1.554549912930     14.603212142800
     333  111  2  -0.35000     12.131019745900      3.157075917050     14.671671205700
     334  112  1   0.70000    -14.519304640900      7.958644453780    -27.257417648000
     335  112  2  -0.35000    -14.476813236100      6.835218334430    -26.971571124700
     336  112  2  -0.35000    -14.561796045600      9.082070573140    -27.543264171300
     337  113  1   0.70000     42.509101076600     37.207727279000     39.807072342100
     338  113  2  -0.35000     43.115105207000     36.843856775300     38.887312998400
     339  113  2  -0.35000     41.903096946200     37.571597782700     40.726831685900
     340  114  1   0.70000     44.395372656300      1.789832948540    -46.035889881300