LAMMPS Atom File

         3000 atoms
         2000 bonds
         1000 angles
           0 dihedrals
           0 impropers

           2 atom types
           1 bond types
           1 angle types

         0.0  44.3777370799 xlo xhi
         0.0  44.3777370799 ylo yhi
         0.0  44.3777370799 zlo zhi

Masses

         1   12.01070
         2   15.99990

Atoms

       1    1  1   0.70000    -11.271001381300     17.706737796900    -22.103946359900
       2    1  2  -0.35000    -11.380267045500     17.108476785900    -21.116148416300
       3    1  2  -0.35000    -11.161735717100     18.304998808000    -23.091744303416
       4    2  1   0.70000      3.890315213280     21.630791065300     -1.074582600230
       5    2  2  -0.35000      3.059698626390     20.834743556200     -1.222854137810
       6    2  2  -0.35000      4.720931800170     22.426838574416     -0.926311062648
       7    3  1   0.70000     -0.998339704476     15.151989675800    -19.384305918900
       8    3  2  -0.35000     -2.078568453300     15.147094681300    -18.961598112900
       9    3  2  -0.35000      0.081889044350     15.156884670200    -19.807013724900
      10    4  1   0.70000    -19.326337796800     11.863114399700     -8.020975039970
      11    4  2  -0.35000    -19.730660639300     12.391870114300     -8.970996320370
      12    4  2  -0.35000    -18.922014954300     11.334358685000     -7.070953759560
      13    5  1   0.70000      5.228355274790      7.233377628160     -8.295045445240
      14    5  2  -0.35000      6.222852077990      6.639870015030     -8.360808820920
      15    5  2  -0.35000      4.233858471590      7.826885241290     -8.229282069560
      16    6  1   0.70000     -3.560746935050    -12.878809739100    -22.119212702100
      17    6  2  -0.35000     -4.160662357800    -12.507654253900    -21.198373361400
      18    6  2  -0.35000     -2.960831512300    -13.249965224300    -23.040052042816
      19    7  1   0.70000     -6.431003604910    -22.042518090200     -9.232100999500
      20    7  2  -0.35000     -5.300785049440    -22.215679260416     -9.036598503300
      21    7  2  -0.35000     -7.561222160380    -21.869356920100     -9.427603495710
      22    8  1   0.70000     -3.304427016060      4.263645317890     10.981234947800
      23    8  2  -0.35000     -2.266523446320      4.433375964530     10.491798856400
      24    8  2  -0.35000     -4.342330585790      4.093914671250     11.470671039100
      25    9  1   0.70000      5.771125869100    -11.022352621000     16.820173984100
      26    9  2  -0.35000      6.409004622360    -10.204708017600     16.300397110200
      27    9  2  -0.35000      5.133247115830    -11.839997224400     17.339950858000
      28   10  1   0.70000    -11.447273855000     21.680824053200     -0.241534741547
      29   10  2  -0.35000    -12.010710236200     22.393918707216     -0.962392188441
      30   10  2  -0.35000    -10.883837473800     20.967729399200      0.479322705346
      31   11  1   0.70000    -10.158915516600     11.733689289600      4.819225745720
      32   11  2  -0.35000    -10.575246578300     11.447579809900      5.863452642860
      33   11  2  -0.35000     -9.742584454940     12.019798769300      3.774998848570
      34   12  1   0.70000     14.484214300300     -1.272470937090      4.612610065180
      35   12  2  -0.35000     14.623801551500     -1.284050374970      3.461097444360
      36   12  2  -0.35000     14.344627049100     -1.260891499210      5.764122686010
      37   13  1   0.70000    -16.264619468900     -8.425575552920     21.198627920900
      38   13  2  -0.35000    -16.663677538900     -8.934973801030     22.161366764800
      39   13  2  -0.35000    -15.865561398900     -7.916177304810     20.235889077000
      40   14  1   0.70000     16.658897074100     11.920492159800    -15.665035764500
      41   14  2  -0.35000     16.741167909400     12.930071528500    -16.230350728100
      42   14  2  -0.35000     16.576626238900     10.910912791100    -15.099720801000
      43   15  1   0.70000     -7.105607120880     12.921351530000     16.227445858000
      44   15  2  -0.35000     -6.729351434740     12.900198739500     15.130365998500
      45   15  2  -0.35000     -7.481862807010     12.942504320500     17.324525717500
      46   16  1   0.70000      2.827430511230     17.479800940600     16.062331260700
      47   16  2  -0.35000      3.528895127140     18.273669920000     16.534898119600
      48   16  2  -0.35000      2.125965895310     16.685931961100     15.589764401900
      49   17  1   0.70000      1.994867634180     21.814947987600    -14.239792367500
      50   17  2  -0.35000      2.623426672160     22.346283380316    -13.422359657000
      51   17  2  -0.35000      1.366308596200     21.283612594800    -15.057225078000
      52   18  1   0.70000     20.613134961900      8.642777349480     18.615157033900
      53   18  2  -0.35000     19.887672506900      9.003277157640     17.784889538100
      54   18  2  -0.35000     21.338597416900      8.282277541320     19.445424529800
      55   19  1   0.70000     -8.440676148550    -20.035816796100      8.131579272280
      56   19  2  -0.35000     -9.181961667800    -19.968667054400      9.021290849780
      57   19  2  -0.35000     -7.699390629300    -20.102966537800      7.241867694790
      58   20  1   0.70000      1.187383854520    -16.619460178100    -18.063452712800
      59   20  2  -0.35000      1.834434414610    -17.326007470100    -18.717453092700
      60   20  2  -0.35000      0.540333294433    -15.912912886100    -17.409452332900
      61   21  1   0.70000      0.541022034758      1.592062894280     15.022487564000
      62   21  2  -0.35000      1.608841422920      1.890236372520     14.681233507400
      63   21  2  -0.35000     -0.526797353408      1.293889416040     15.363741620600
      64   22  1   0.70000     -3.582953023910     -5.174185266920     -4.919680060740
      65   22  2  -0.35000     -4.735599841880     -5.222843932510     -4.798693915730
      66   22  2  -0.35000     -2.430306205940     -5.125526601320     -5.040666205750
      67   23  1   0.70000      8.989031178260     15.027464345300      6.384384527400
      68   23  2  -0.35000      9.903624502320     14.780035972000      5.715132518310
      69   23  2  -0.35000      8.074437854200     15.274892718600      7.053636536490
      70   24  1   0.70000     -6.787592239880     10.925079178500    -18.858924197500
      71   24  2  -0.35000     -6.512504719220     10.343474804700    -19.824151221800
      72   24  2  -0.35000     -7.062679760550     11.506683552200    -17.893697173200
      73   25  1   0.70000     21.886830008100    -20.059135744900     18.976721922200
      74   25  2  -0.35000     22.682387658616    -19.901444901500     18.147371801600
      75   25  2  -0.35000     21.091272357600    -20.216826588300     19.806072042800
      76   26  1   0.70000     15.367079356400     -5.626102227830      2.288635631930
      77   26  2  -0.35000     14.807348965900     -4.652341771530      1.998648625780
      78   26  2  -0.35000     15.926809746900     -6.599862684120      2.578622638080
      79   27  1   0.70000     17.739999582300     15.505143811500     15.464291912800
      80   27  2  -0.35000     17.329636653200     16.547653437400     15.163665988700
      81   27  2  -0.35000     18.150362511400     14.462634185500     15.764917837000
      82   28  1   0.70000     -7.277807983400     -7.714275266120    -17.597199363500
      83   28  2  -0.35000     -6.990829637960     -7.415511306660    -18.680704566900
      84   28  2  -0.35000     -7.564786328830     -8.013039225590    -16.513694160100
      85   29  1   0.70000    -20.606407898700     -7.378387691060    -16.521610445600
      86   29  2  -0.35000    -20.655704927300     -6.381505264840    -15.930513811100
      87   29  2  -0.35000    -20.557110870000     -8.375270117290    -17.112707080000
      88   30  1   0.70000     13.978081019200    -14.989852632000      5.194084769450
      89   30  2  -0.35000     14.014607333300    -16.149157434500      5.210764195630
      90   30  2  -0.35000     13.941554705100    -13.830547829500      5.177405343280
      91   31  1   0.70000      4.724346295510     21.480484796300    -12.016579268000
      92   31  2  -0.35000      5.501786964960     21.999581136200    -12.703401657900
      93   31  2  -0.35000      3.946905626060     20.961388456300    -11.329756878000
      94   32  1   0.70000      5.975412293180      9.129000718220    -10.748547843100
      95   32  2  -0.35000      5.245307194170      9.086614720760    -11.648964397600
      96   32  2  -0.35000      6.705517392190      9.171386715690     -9.848131288640
      97   33  1   0.70000     13.369789890300    -20.647399211300     12.915853953200
      98   33  2  -0.35000     13.098845394900    -21.775312713800     12.916313713800
      99   33  2  -0.35000     13.640734385700    -19.519485708800     12.915394192600
     100   34  1   0.70000     -2.742972543220    -19.683675560800     11.797511784800
     101   34  2  -0.35000     -3.644377625930    -18.963199098700     11.679263975500
     102   34  2  -0.35000     -1.841567460520    -20.404152022900     11.915759594000
     103   35  1   0.70000     10.047797260500     -6.538232329970    -18.073754308100
     104   35  2  -0.35000     10.690662887700     -5.682004695340    -18.520070365400
     105   35  2  -0.35000      9.404931633240     -7.394459964610    -17.627438250800
     106   36  1   0.70000     -2.770117467150    -14.173685055000     -4.946131590850
     107   36  2  -0.35000     -1.722918589110    -13.741335273800     -5.195226304890
     108   36  2  -0.35000     -3.817316345180    -14.606034836100     -4.697036876810
     109   37  1   0.70000     15.822978055400    -21.297818158700      4.531634176400
     110   37  2  -0.35000     15.836332990300    -20.143947540700      4.413294653680
     111   37  2  -0.35000     15.809623120600    -22.451688776716      4.649973699110
     112   38  1   0.70000     12.780282705800     17.119909103600     -3.129216913850
     113   38  2  -0.35000     13.546581015100     16.456073782000     -3.692874227140
     114   38  2  -0.35000     12.013984396400     17.783744425200     -2.565559600560
     115   39  1   0.70000    -18.695853920400     -9.353548803410    -13.567114943700
     116   39  2  -0.35000    -19.442942219600     -8.516081434480    -13.273674184400
     117   39  2  -0.35000    -17.948765621300    -10.191016172300    -13.860555703100
     118   40  1   0.70000    -16.004839943200    -16.911305476600      4.152908914740
     119   40  2  -0.35000    -16.367155712000    -16.906079745200      3.050956113840
     120   40  2  -0.35000    -15.642524174400    -16.916531208000      5.254861715640
     121   41  1   0.70000     13.193868312100     -9.459717054350    -13.009968151200
     122   41  2  -0.35000     12.107496223600     -9.184831463380    -13.309690684900
     123   41  2  -0.35000     14.280240400600     -9.734602645310    -12.710245617500
     124   42  1   0.70000     19.053376858300      7.101550171920     -9.623459537920
     125   42  2  -0.35000     18.854371220100      6.279676987360     -8.829405871940
     126   42  2  -0.35000     19.252382496500      7.923423356480    -10.417513203900
     127   43  1   0.70000      0.234595530239     -1.133330807350      2.998318712020
     128   43  2  -0.35000      0.785270405913     -1.827551785970      3.746927030270
     129   43  2  -0.35000     -0.316079345436     -0.439109828735      2.249710393770
     130   44  1   0.70000      6.666025745570     -5.946550690680      7.537636849280
     131   44  2  -0.35000      6.779996104580     -5.470440751100      6.486004745030
     132   44  2  -0.35000      6.552055386560     -6.422660630260      8.589268953540
     133   45  1   0.70000     17.952419074300      8.857766186580    -16.396207329700
     134   45  2  -0.35000     18.527159339400      9.738812289510    -16.885115697600
     135   45  2  -0.35000     17.377678809100      7.976720083660    -15.907298961900
     136   46  1   0.70000      7.588420674720    -13.912439941600     19.761670846200
     137   46  2  -0.35000      7.468159995100    -13.181833685500     18.868725233300
     138   46  2  -0.35000      7.708681354340    -14.643046197600     20.654616459100
     139   47  1   0.70000      2.658877524680      6.566020382380    -20.327570476300
     140   47  2  -0.35000      3.227944342140      6.142108276860    -21.245209557900
     141   47  2  -0.35000      2.089810707220      6.989932487890    -19.409931394800
     142   48  1   0.70000    -15.130018458600     10.694513632400     14.612620125900
     143   48  2  -0.35000    -15.858859949200     11.428356976400     15.137847722200
     144   48  2  -0.35000    -14.401176967900      9.960670288350     14.087392529600
     145   49  1   0.70000     -1.288216031700     20.515673634200    -11.026502555300
     146   49  2  -0.35000     -0.483023282961     21.144675320000    -10.477301757200
     147   49  2  -0.35000     -2.093408780430     19.886671948400    -11.575703353400
     148   50  1   0.70000    -20.493655130000      3.351792406990     -7.856281143420
     149   50  2  -0.35000    -20.830484869100      3.606802107690     -8.936612471930
     150   50  2  -0.35000    -20.156825390800      3.096782706280     -6.775949814920
     151   51  1   0.70000    -12.665184521500    -19.148424496400     -5.965724516460
     152   51  2  -0.35000    -13.050597179900    -20.072551266200     -5.380022547820
     153   51  2  -0.35000    -12.279771863100    -18.224297726600     -6.551426485090
     154   52  1   0.70000     -1.309062936470    -19.587242264500    -20.269225359700
     155   52  2  -0.35000     -2.099601464770    -19.479098894100    -19.427231389000
     156   52  2  -0.35000     -0.518524408168    -19.695385634900    -21.111219330400
     157   53  1   0.70000     20.153055050500    -14.539792462500      7.670000919410
     158   53  2  -0.35000     19.818483509700    -13.459575289600      7.411557998280
     159   53  2  -0.35000     20.487626591400    -15.620009635300      7.928443840550
     160   54  1   0.70000     15.982898299300      6.263985484420    -14.367413186900
     161   54  2  -0.35000     15.146177249600      6.125984615270    -15.158901433900
     162   54  2  -0.35000     16.819619349000      6.401986353570    -13.575924939900
     163   55  1   0.70000     -6.858196403310      6.234901389930    -16.996347109400
     164   55  2  -0.35000     -6.780110369150      6.843783759620    -16.012088590900
     165   55  2  -0.35000     -6.936282437470      5.626019020240    -17.980605627800
     166   56  1   0.70000      3.324455186270    -11.540774289200     -1.745774073660
     167   56  2  -0.35000      2.508510822280    -12.359351188800     -1.646947689650
     168   56  2  -0.35000      4.140399550270    -10.722197389500     -1.844600457660
     169   57  1   0.70000     -9.118370550050     14.534258502700     21.161787633500
     170   57  2  -0.35000     -9.186152579860     13.724000363900     21.989125137100
     171   57  2  -0.35000     -9.050588520240     15.344516641600     20.334450130000
     172   58  1   0.70000    -13.068760198800      0.135816392940    -10.503063009200
     173   58  2  -0.35000    -13.026490341600      1.073479224350    -11.184679964500
     174   58  2  -0.35000    -13.111030056100     -0.801846438469     -9.821446053930
     175   59  1   0.70000     -6.432725850710      6.874984257330    -21.962286074800
     176   59  2  -0.35000     -5.983181720170      6.431535929230    -22.935355268116
     177   59  2  -0.35000     -6.882269981250      7.318432585440    -20.989216881500
     178   60  1   0.70000    -22.045233613300    -21.481838952400    -15.283988901500
     179   60  2  -0.35000    -22.046706511500    -22.633382900616    -15.423790067800
     180   60  2  -0.35000    -22.043760715100    -20.330295004300    -15.144187735300
     181   61  1   0.70000    -17.635859054000     13.881365635200      3.684537393000
     182   61  2  -0.35000    -17.664519115700     14.135534996300      4.815986259170
     183   61  2  -0.35000    -17.607198992200     13.627196274200      2.553088526830
     184   62  1   0.70000      0.567927003988    -10.652593042700    -20.859254497400
     185   62  2  -0.35000      0.376101035200    -10.584037744000    -19.717281218900
     186   62  2  -0.35000      0.759752972775    -10.721148341500    -22.001227775800
     187   63  1   0.70000      8.524860122840     21.465694943100    -18.482514859400
     188   63  2  -0.35000      9.503426540660     22.074639157200    -18.613643460200
     189   63  2  -0.35000      7.546293705010     20.856750728900    -18.351386258700
     190   64  1   0.70000    -15.639551808700      8.867299451310     -7.735764769320
     191   64  2  -0.35000    -16.783169922300      8.987833891480     -7.583419572400
     192   64  2  -0.35000    -14.495933695100      8.746765011140     -7.888109966250
     193   65  1   0.70000    -22.066872477000    -16.504743166300     -7.252709347290
     194   65  2  -0.35000    -22.274768740316    -17.590688996000     -6.901852113410
     195   65  2  -0.35000    -21.858976213700    -15.418797336500     -7.603566581170
     196   66  1   0.70000     -3.315844984560      8.409996100240      8.172965622150
     197   66  2  -0.35000     -4.237231903390      9.103009885000      8.300942338520
     198   66  2  -0.35000     -2.394458065730      7.716982315470      8.044988905780
     199   67  1   0.70000     21.902086686800    -21.337006840500    -18.449754900500
     200   67  2  -0.35000     22.346537300616    -20.300605035100    -18.177845081600
     201   67  2  -0.35000     21.457636072900    -22.373408645916    -18.721664719500
     202   68  1   0.70000      2.545962600170    -14.997521644000      2.563945315400
     203   68  2  -0.35000      2.312187407970    -15.272526862900      3.666361429700
     204   68  2  -0.35000      2.779737792380    -14.722516425100      1.461529201100
     205   69  1   0.70000    -13.274505708500    -14.033148931500      6.269319520420
     206   69  2  -0.35000    -12.896786274300    -15.107751449100      6.049871444390
     207   69  2  -0.35000    -13.652225142700    -12.958546413800      6.488767596450
     208   70  1   0.70000    -18.483583674000     -5.495806795260      9.292333401400
     209   70  2  -0.35000    -19.385551272600     -6.224856025800      9.269059584110
     210   70  2  -0.35000    -17.581616075500     -4.766757564710      9.315607218700
     211   71  1   0.70000    -15.745363718600     -7.064838396590     -4.499039158300
     212   71  2  -0.35000    -16.140507548200     -8.118397406190     -4.217126463940
     213   71  2  -0.35000    -15.350219889000     -6.011279386990     -4.780951852660
     214   72  1   0.70000    -16.522990210500      1.835779384500     14.997622243000
     215   72  2  -0.35000    -15.892650589100      1.748859808870     15.967527882200
     216   72  2  -0.35000    -17.153329831900      1.922698960120     14.027716603700
     217   73  1   0.70000     -8.752187729950    -15.006888267200     10.168025775200
     218   73  2  -0.35000     -7.632570911770    -15.016350815700     10.471289094200
     219   73  2  -0.35000     -9.871804548130    -14.997425718700      9.864762456260
     220   74  1   0.70000     -5.161682319960      2.844520016460     -8.578738768090
     221   74  2  -0.35000     -6.157539996230      2.266410326370     -8.438536504010
     222   74  2  -0.35000     -4.165824643700      3.422629706540     -8.718941032160
     223   75  1   0.70000     -4.712403886450    -11.636217689900      6.484564098880
     224   75  2  -0.35000     -3.724804989850    -11.526909084500      5.885982401680
     225   75  2  -0.35000     -5.700002783050    -11.745526295300      7.083145796080
     226   76  1   0.70000    -20.055570091200     -1.216072701200     20.195401899700
     227   76  2  -0.35000    -20.502786742700     -2.226118528680     19.841276649400
     228   76  2  -0.35000    -19.608353439600     -0.206026873714     20.549527150100
     229   77  1   0.70000     19.386648297100      5.472384347180    -18.269079491800
     230   77  2  -0.35000     20.416124980600      5.028322255700    -18.566714531700
     231   77  2  -0.35000     18.357171613600      5.916446438660    -17.971444451900
     232   78  1   0.70000     14.325183844000    -12.016352745500     -2.758935309250
     233   78  2  -0.35000     14.064277672100    -11.238192146200     -1.939182876440
     234   78  2  -0.35000     14.586090016000    -12.794513344800     -3.578687742050
     235   79  1   0.70000     19.303546266200     13.890046263500      6.452604444570
     236   79  2  -0.35000     19.086578292400     14.836179302700      5.817500381920
     237   79  2  -0.35000     19.520514240100     12.943913224300      7.087708507230
     238   80  1   0.70000     13.884823256500     13.299938826300     16.872303603900
     239   80  2  -0.35000     14.614792077600     14.096446767400     16.450023341600
     240   80  2  -0.35000     13.154854435400     12.503430885200     17.294583866300
     241   81  1   0.70000    -15.175940069700      9.082007732310    -14.502196918000
     242   81  2  -0.35000    -15.391526141100      8.180412281940    -15.199511975700
     243   81  2  -0.35000    -14.960353998200      9.983603182690    -13.804881860400
     244   82  1   0.70000     -7.128714127120    -10.194642104400     -5.752027578050
     245   82  2  -0.35000     -6.000273125410     -9.954712958200     -5.873085045660
     246   82  2  -0.35000     -8.257155128820    -10.434571250600     -5.630970110440
     247   83  1   0.70000     18.902135466800     -6.195064621460     15.376878420800
     248   83  2  -0.35000     18.998292416700     -5.718548146190     16.430104839800
     249   83  2  -0.35000     18.805978517000     -6.671581096730     14.323652001700
     250   84  1   0.70000     20.992823741200    -15.329454982700     18.663896537700
     251   84  2  -0.35000     21.880859112700    -16.059770320900     18.817625798800
     252   84  2  -0.35000     20.104788369600    -14.599139644600     18.510167276600
     253   85  1   0.70000      8.058000987990     12.175770059500      9.931927923730
     254   85  2  -0.35000      7.753300701330     11.077292233500      9.717209034770
     255   85  2  -0.35000      8.362701274660     13.274247885400     10.146646812700
     256   86  1   0.70000     15.075311560300      0.961042318968     17.619326636800
     257   86  2  -0.35000     15.947746594700      1.717756889220     17.510514091600
     258   86  2  -0.35000     14.202876525900      0.204327748720     17.728139181900
     259   87  1   0.70000    -13.421564608800      8.129953245800      9.442656322230
     260   87  2  -0.35000    -14.176852135700      8.386297322460     10.284932088300
     261   87  2  -0.35000    -12.666277081800      7.873609169140      8.600380556200
     262   88  1   0.70000      6.815273940400      4.650190512210    -21.528569965100
     263   88  2  -0.35000      6.797258723590      3.521070233170    -21.793829927100
     264   88  2  -0.35000      6.833289157200      5.779310791260    -21.263310003100
     265   89  1   0.70000      9.680518328750     19.262260483300      9.511675281100
     266   89  2  -0.35000      9.915870913670     18.290626559000      8.923341466150
     267   89  2  -0.35000      9.445165743820     20.233894407700     10.100009096100
     268   90  1   0.70000     -7.343199242230     -1.345195074670      1.198639162230
     269   90  2  -0.35000     -6.811046979960     -2.013310595710      0.413759795509
     270   90  2  -0.35000     -7.875351504490     -0.677079553622      1.983518528960
     271   91  1   0.70000    -16.305713756000      3.530185572380    -10.902781288900
     272   91  2  -0.35000    -15.979556180100      2.560122185980    -11.448856615300
     273   91  2  -0.35000    -16.631871331900      4.500248958770    -10.356705962600
     274   92  1   0.70000     -4.474407682900    -16.762094709700     20.214071672100
     275   92  2  -0.35000     -4.721186412380    -15.730210933100     19.745119510000
     276   92  2  -0.35000     -4.227628953410    -17.793978486200     20.683023834200
     277   93  1   0.70000     -7.456303335040    -16.735816297900    -22.102021355900
     278   93  2  -0.35000     -7.257288411960    -17.737120162300    -21.551218640300
     279   93  2  -0.35000     -7.655318258120    -15.734512433500    -22.652824071516
     280   94  1   0.70000    -20.342089892300      9.667155706700      0.313363702391
     281   94  2  -0.35000    -19.306273314900      9.525897069610     -0.189358900612
     282   94  2  -0.35000    -21.377906469600      9.808414343790      0.816086305394
     283   95  1   0.70000      2.860739083160    -18.077930415000    -11.974042939900
     284   95  2  -0.35000      2.802716144100    -19.076995864400    -12.560644650100
     285   95  2  -0.35000      2.918762022220    -17.078864965700    -11.387441229600
     286   96  1   0.70000     -4.503458713100      5.058177790670    -14.109134175600
     287   96  2  -0.35000     -4.734871342870      5.235899416890    -12.986430644700
     288   96  2  -0.35000     -4.272046083320      4.880456164450    -15.231837706500
     289   97  1   0.70000     -8.405088106920      9.314723361340     -5.651188810550
     290   97  2  -0.35000     -8.366192600910      9.834096742480     -4.614685829090
     291   97  2  -0.35000     -8.443983612930      8.795349980200     -6.687691792010
     292   98  1   0.70000    -15.448968399700     11.990909033200      7.760860990730
     293   98  2  -0.35000    -14.703411793700     11.819142817200      6.888942580390
     294   98  2  -0.35000    -16.194525005700     12.162675249300      8.632779401070
     295   99  1   0.70000      8.448024015400    -10.248762940100    -12.477374129900
     296   99  2  -0.35000      7.996529311240    -11.312009824900    -12.371267607100
     297   99  2  -0.35000      8.899518719570     -9.185516055380    -12.583480652800
     298  100  1   0.70000     -4.605228852060    -22.074396003600     15.850058050900
     299  100  2  -0.35000     -4.882074088230    -21.539839360000     16.841625451500
     300  100  2  -0.35000     -4.328383615890    -22.608952647116     14.858490650200
     301  101  1   0.70000     -7.928861385870     17.064053048600     -6.025633475400
     302  101  2  -0.35000     -8.748577391140     17.341550937000     -5.253195392040
     303  101  2  -0.35000     -7.109145380600     16.786555160200     -6.798071558760
     304  102  1   0.70000      0.933210332416     -0.149449615744    -16.493258037400
     305  102  2  -0.35000      0.865838406030      0.501023297247    -15.535163045800
     306  102  2  -0.35000      1.000582258800     -0.799922528736    -17.451353029100
     307  103  1   0.70000     -1.044937886690    -16.913575101200     -0.087421236093
     308  103  2  -0.35000     -1.406961737710    -15.870579046100     -0.443367805693
     309  103  2  -0.35000     -0.682914035669    -17.956571156200      0.268525333506
     310  104  1   0.70000      4.788494714880     21.270141342600      8.713582867730
     311  104  2  -0.35000      5.545659100570     20.957588041000      7.892234874080
     312  104  2  -0.35000      4.031330329180     21.582694644200      9.534930861380
     313  105  1   0.70000    -11.201830086500     13.377136798700     -0.267217671401
     314  105  2  -0.35000    -12.119750710700     12.668130544000     -0.249000687636
     315  105  2  -0.35000    -10.283909462300     14.086143053400     -0.285434655165
     316  106  1   0.70000      0.390414066812     16.957324908900     -2.217853879140
     317  106  2  -0.35000      0.122541962532     15.828697069200     -2.224467135440
     318  106  2  -0.35000      0.658286171092     18.085952748600     -2.211240622840
     319  107  1   0.70000    -10.070297379800     10.263410256800     -0.356514371621
     320  107  2  -0.35000     -9.483005118970     11.179226297600      0.045939078689
     321  107  2  -0.35000    -10.657589640700      9.347594215970     -0.758967821931
     322  108  1   0.70000     -4.626947442110      1.830953589060     -1.194672196110
     323  108  2  -0.35000     -4.043352655390      2.232152680200     -2.113397625270
     324  108  2  -0.35000     -5.210542228840      1.429754497920     -0.275946766957
     325  109  1   0.70000      9.782429255430    -17.993197044400      8.394389054070
     326  109  2  -0.35000      9.211596417130    -18.286157525400      9.360786501970
     327  109  2  -0.35000     10.353262093700    -17.700236563500      7.427991606170
     328  110  1   0.70000    -14.194677634000      0.917455427593     10.194963931700
     329  110  2  -0.35000    -13.470599353400      0.493132481873      9.394176393520
     330  110  2  -0.35000    -14.918755914600      1.341778373310     10.995751469800
     331  111  1   0.70000     11.803935748400     -9.934562346520     22.108022184900
     332  111  2  -0.35000     10.838226602700     -9.815428487090     22.739538589716
     333  111  2  -0.35000     12.769644894000    -10.053696206000     21.476505780100
     334  112  1   0.70000    -18.964491179200    -11.509424789800     -3.703764436160
     335  112  2  -0.35000    -19.023180082000    -12.666287573300     -3.765603847780
     336  112  2  -0.35000    -18.905802276300    -10.352562006300     -3.641925024550
     337  113  1   0.70000     -0.780401103028     -6.015330921520    -22.104380571900
     338  113  2  -0.35000     -0.660795140115     -6.884423959080    -22.863308569616
     339  113  2  -0.35000     -0.900007065941     -5.146237883960    -21.345452574200
     340  114  1   0.70000    -20.944352037800    -22.123002069500    -12.474536851300