LAMMPS Atom File

         3000 atoms
         2000 bonds
         1000 angles
           0 dihedrals
           0 impropers

           2 atom types
           1 bond types
           1 angle types

         0.0  82.1061966171 xlo xhi
         0.0  82.1061966171 ylo yhi
         0.0  82.1061966171 zlo zhi

Masses

         1   12.01070
         2   15.99990

Atoms

       1    1  1   0.70000    -25.175503804400     28.826682245700    -35.437429626300
       2    1  2  -0.35000    -25.187093383900     28.123943680400    -34.514594760000
       3    1  2  -0.35000    -25.163914224900     29.529420810900    -36.360264492700
       4    2  1   0.70000     38.923188334000     20.247837322000    -36.472772204200
       5    2  2  -0.35000     39.137041709200     19.112130545500    -36.572956293200
       6    2  2  -0.35000     38.709334958800     21.383544098600    -36.372588115300
       7    3  1   0.70000      9.891679483380     29.626613794000      0.395044545333
       8    3  2  -0.35000     10.066119234000     28.879796933900     -0.475263073225
       9    3  2  -0.35000      9.717239732750     30.373430654100      1.265352163890
      10    4  1   0.70000    -12.625243883800     18.968940750300    -38.378270938700
      11    4  2  -0.35000    -12.335592568700     19.593327509800    -39.311996428400
      12    4  2  -0.35000    -12.914895198800     18.344553990700    -37.444545449000
      13    5  1   0.70000    -33.167405949000     23.394106837600    -18.309685594500
      14    5  2  -0.35000    -32.068661371000     23.326939305000    -17.943831969400
      15    5  2  -0.35000    -34.266150526900     23.461274370300    -18.675539219500
      16    6  1   0.70000     16.302001520900     -0.593718412505     -8.761069640940
      17    6  2  -0.35000     16.922843106000     -1.544392700880     -8.998501996920
      18    6  2  -0.35000     15.681159935800      0.356955875867     -8.523637284960
      19    7  1   0.70000      6.736134523220    -29.608823314500     39.082628181000
      20    7  2  -0.35000      6.648020173880    -30.699596275300     38.697855248600
      21    7  2  -0.35000      6.824248872550    -28.518050353800     39.467401113400
      22    8  1   0.70000     -9.146333937190     39.012556795800    -21.510315790400
      23    8  2  -0.35000     -8.144448142030     38.433385470600    -21.590224673500
      24    8  2  -0.35000    -10.148219732300     39.591728120900    -21.430406907400
      25    9  1   0.70000     -9.729941433290      2.686539213070     24.463165318400
      26    9  2  -0.35000     -8.795611586160      2.190704861880     24.939375390600
      27    9  2  -0.35000    -10.664271280400      3.182373564270     23.986955246100
      28   10  1   0.70000     24.482612596300    -23.447923752500     37.146283745200
      29   10  2  -0.35000     23.657365691300    -23.951718593600     37.787188031200
      30   10  2  -0.35000     25.307859501400    -22.944128911400     36.505379459200
      31   11  1   0.70000    -26.408888891400     39.511736899000      4.364769518390
      32   11  2  -0.35000    -25.569947474200     39.247397139900      3.608527632300
      33   11  2  -0.35000    -27.247830308600     39.776076658200      5.121011404490
      34   12  1   0.70000    -20.212936518900     29.996842125800      6.798564346890
      35   12  2  -0.35000    -19.422186760500     29.899337524700      5.955470240410
      36   12  2  -0.35000    -21.003686277200     30.094346727000      7.641658453360
      37   13  1   0.70000     26.758544116000      1.535138205100      9.484676335410
      38   13  2  -0.35000     26.099337245100      0.980801365741      8.707658337040
      39   13  2  -0.35000     27.417750987000      2.089475044450     10.261694333800
      40   14  1   0.70000    -36.893270278900    -13.366968170400     29.660639134400
      41   14  2  -0.35000    -37.825413093500    -12.776234295600     29.303227239600
      42   14  2  -0.35000    -35.961127464400    -13.957702045100     30.018051029200
      43   15  1   0.70000     38.041691851200     21.938124696900    -26.872242724700
      44   15  2  -0.35000     37.894614663800     21.023475352500    -26.174113168200
      45   15  2  -0.35000     38.188769038500     22.852774041400    -27.570372281200
      46   16  1   0.70000    -23.004713575900     26.318899661700     32.135396174500
      47   16  2  -0.35000    -23.861492773600     26.747942841300     31.481598532700
      48   16  2  -0.35000    -22.147934378200     25.889856482200     32.789193816400
      49   17  1   0.70000     -2.691272946730     31.684728082300     22.605452940100
      50   17  2  -0.35000     -3.441315425880     30.806106516600     22.710621489600
      51   17  2  -0.35000     -1.941230467570     32.563349648000     22.500284390600
      52   18  1   0.70000      3.188164853170     37.397240917400    -32.534767945400
      53   18  2  -0.35000      2.050474422630     37.610797962500    -32.459575706900
      54   18  2  -0.35000      4.325855283710     37.183683872300    -32.609960184000
      55   19  1   0.70000    -40.143882728900     12.945803976800     32.452819025600
      56   19  2  -0.35000    -39.921828728200     13.049026375700     31.318959617600
      57   19  2  -0.35000    -40.365936729600     12.842581578000     33.586678433600
      58   20  1   0.70000    -26.613059801900     35.244645359500    -31.643589414600
      59   20  2  -0.35000    -25.665101660400     35.822780043300    -31.979350713000
      60   20  2  -0.35000    -27.561017943300     34.666510675800    -31.307828116200
      61   21  1   0.70000    -22.313715792000    -35.346108568300      9.413157039060
      62   21  2  -0.35000    -22.089618820600    -35.853629674900      8.394430935660
      63   21  2  -0.35000    -22.537812763500    -34.838587461700     10.431883142500
      64   22  1   0.70000      0.684083760323    -36.792089255300    -34.968777645400
      65   22  2  -0.35000     -0.468563057648    -36.840747920900    -34.847791500400
      66   22  2  -0.35000      1.836730578290    -36.743430589700    -35.089763790400
      67   23  1   0.70000     -1.458213427090      9.636238813970     25.333891089900
      68   23  2  -0.35000     -0.302808472540      9.738137437190     25.349893014500
      69   23  2  -0.35000     -2.613618381640      9.534340190760     25.317889165300
      70   24  1   0.70000     -2.499344778190     -8.601673516110     -6.195341138930
      71   24  2  -0.35000     -2.561682705350     -9.329943211310     -7.096083740280
      72   24  2  -0.35000     -2.437006851040     -7.873403820910     -5.294598537580
      73   25  1   0.70000      8.598721126380     30.740172267200      5.089148721980
      74   25  2  -0.35000      8.785067209460     31.768409072500      4.585557409780
      75   25  2  -0.35000      8.412375043300     29.711935462000      5.592740034180
      76   26  1   0.70000    -15.555144943000     16.820483802700    -31.153379399400
      77   26  2  -0.35000    -14.424579133900     16.906711239700    -30.908459452400
      78   26  2  -0.35000    -16.685710752100     16.734256365600    -31.398299346500
      79   27  1   0.70000     39.845018370300    -31.254703018200     31.478911608700
      80   27  2  -0.35000     39.156815168000    -32.188216801700     31.501897869100
      81   27  2  -0.35000     40.533221572700    -30.321189234600     31.455925348300
      82   28  1   0.70000     -7.503569374310     -1.320272263250     21.496670012100
      83   28  2  -0.35000     -7.824494775470     -1.769492611960     20.476470048800
      84   28  2  -0.35000     -7.182643973140     -0.871051914546     22.516869975500
      85   29  1   0.70000     29.162810433000    -17.077985654400      3.745882185130
      86   29  2  -0.35000     28.698507852700    -18.092777965100      3.429307265170
      87   29  2  -0.35000     29.627113013300    -16.063193343600      4.062457105080
      88   30  1   0.70000     39.243693995300     31.205549001600     34.025688033600
      89   30  2  -0.35000     38.715524732800     30.410152443500     34.684460790700
      90   30  2  -0.35000     39.771863257800     32.000945559700     33.366915276400
      91   31  1   0.70000    -14.458434442600    -15.713607525800    -36.617852901200
      92   31  2  -0.35000    -13.306766482600    -15.852378794500    -36.619708962900
      93   31  2  -0.35000    -15.610102402500    -15.574836257100    -36.615996839600
      94   32  1   0.70000     18.019784277000    -35.389119177400    -33.108618498100
      95   32  2  -0.35000     17.650219407600    -35.501758173500    -34.202389161400
      96   32  2  -0.35000     18.389349146500    -35.276480181400    -32.014847834800
      97   33  1   0.70000    -39.548122234200     -9.354799055320    -31.250462087300
      98   33  2  -0.35000    -39.819066729700    -10.482712557800    -31.250002326700
      99   33  2  -0.35000    -39.277177738800     -8.226885552870    -31.250921848000
     100   34  1   0.70000     23.127028105400    -34.014443304900      6.321981895350
     101   34  2  -0.35000     22.585624698000    -34.138919439000      7.340307993680
     102   34  2  -0.35000     23.668431512700    -33.889967170700      5.303655797020
     103   35  1   0.70000     12.544855839000    -39.939333302000    -25.857563656200
     104   35  2  -0.35000     13.202137721900    -39.755143488100    -24.919664600400
     105   35  2  -0.35000     11.887573956100    -40.123523115900    -26.795462712100
     106   36  1   0.70000      7.247173418120     18.993912563800    -23.027402008700
     107   36  2  -0.35000      8.072968696880     18.325994258000    -22.560982353900
     108   36  2  -0.35000      6.421378139370     19.661830869600    -23.493821663500
     109   37  1   0.70000     26.893736903700    -36.300361752000     25.848653378900
     110   37  2  -0.35000     27.092405115700    -37.441625435100     25.788253484600
     111   37  2  -0.35000     26.695068691800    -35.159098068900     25.909053273100
     112   38  1   0.70000     -8.674821671620    -38.504843777100     23.172008430300
     113   38  2  -0.35000     -9.520544439100    -38.069687935200     23.836081012100
     114   38  2  -0.35000     -7.829098904130    -38.939999618900     22.507935848600
     115   39  1   0.70000     28.230023100500     -0.792582425817    -37.317365212900
     116   39  2  -0.35000     28.446385133100      0.339976158497    -37.190485254100
     117   39  2  -0.35000     28.013661068000     -1.925141010130    -37.444245171800
     118   40  1   0.70000    -15.241533855800    -22.230651280400     -3.016166520390
     119   40  2  -0.35000    -14.227400174400    -22.693117896400     -2.694829461900
     120   40  2  -0.35000    -16.255667537300    -21.768184664300     -3.337503578880
     121   41  1   0.70000     32.071796922100    -35.420376753500     10.379833210900
     122   41  2  -0.35000     30.985424833600    -35.145491162500     10.080110677200
     123   41  2  -0.35000     33.158169010600    -35.695262344500     10.679555744600
     124   42  1   0.70000     28.292854975300     28.282535631800     -8.997629344870
     125   42  2  -0.35000     27.991480541600     28.228617895500    -10.116497669800
     126   42  2  -0.35000     28.594229408900     28.336453368000     -7.878761019960
     127   43  1   0.70000    -27.708770547100    -17.147597481300    -23.587687061000
     128   43  2  -0.35000    -28.627588393200    -17.367527259800    -22.914630853600
     129   43  2  -0.35000    -26.789952701000    -16.927667702900    -24.260743268300
     130   44  1   0.70000    -31.163475523400     40.489106016400      7.089915099020
     131   44  2  -0.35000    -30.132399675200     40.589267430800      7.611882805300
     132   44  2  -0.35000    -32.194551371600     40.388944601900      6.567947392750
     133   45  1   0.70000     23.468671161900    -18.145182762000    -19.748087324200
     134   45  2  -0.35000     23.025320690600    -18.329403747300    -18.692102955000
     135   45  2  -0.35000     23.912021633300    -17.960961776700    -20.804071693500
     136   46  1   0.70000     37.316612183400     10.667402736600    -14.326794986200
     137   46  2  -0.35000     38.378589133300     10.227189642000    -14.481770433100
     138   46  2  -0.35000     36.254635233400     11.107615831300    -14.171819539400
     139   47  1   0.70000     -6.146801034390      2.037437153340      2.774814896550
     140   47  2  -0.35000     -6.708196525360      2.351382400320      3.740150840470
     141   47  2  -0.35000     -5.585405543410      1.723491906370      1.809478952630
     142   48  1   0.70000     18.003920715700    -10.416927331700     16.484222881300
     143   48  2  -0.35000     18.606288445300     -9.475436908660     16.173821686500
     144   48  2  -0.35000     17.401552986100    -11.358417754600     16.794624076100
     145   49  1   0.70000     29.923946006000     16.744186395500    -32.184697808700
     146   49  2  -0.35000     30.856408416600     17.375918771200    -32.462237100100
     147   49  2  -0.35000     28.991483595300     16.112454019800    -31.907158517300
     148   50  1   0.70000     10.855490638200    -30.769655343300     32.385469262500
     149   50  2  -0.35000     10.603329622500    -29.637924008200     32.420095946400
     150   50  2  -0.35000     11.107651653900    -31.901386678400     32.350842578700
     151   51  1   0.70000      1.390902613390      6.580779356220     39.008896559900
     152   51  2  -0.35000      1.659675771720      7.226786181470     38.083674331900
     153   51  2  -0.35000      1.122129455070      5.934772530970     39.934118787800
     154   52  1   0.70000    -30.914037527700     13.608482572200     24.648600567000
     155   52  2  -0.35000    -31.936489395000     13.735793256700     24.115698916800
     156   52  2  -0.35000    -29.891585660500     13.481171887700     25.181502217100
     157   53  1   0.70000     -2.907899210310    -40.990004080000    -20.112859427600
     158   53  2  -0.35000     -3.598221216970    -41.104043024106    -21.038089478100
     159   53  2  -0.35000     -2.217577203650    -40.875965136000    -19.187629377100
     160   54  1   0.70000    -32.793450843200     10.863517901500     -4.980251852890
     161   54  2  -0.35000    -31.765308847700     10.464572087000     -5.339927087320
     162   54  2  -0.35000    -33.821592838600     11.262463716000     -4.620576618450
     163   55  1   0.70000    -28.609757833700    -40.712747723000    -16.107882670800
     164   55  2  -0.35000    -29.648570103000    -40.529839410900    -16.590597512500
     165   55  2  -0.35000    -27.570945564300    -40.895656035100    -15.625167829000
     166   56  1   0.70000      6.354932919870    -36.034673010900    -40.599144953500
     167   56  2  -0.35000      6.766358564860    -36.610885470400    -41.518007369806
     168   56  2  -0.35000      5.943507274880    -35.458460551400    -39.680282537100
     169   57  1   0.70000     31.197956040400    -17.442462259000     14.853024653900
     170   57  2  -0.35000     31.020236153800    -16.303380399800     14.981508738600
     171   57  2  -0.35000     31.375675926900    -18.581544118200     14.724540569100
     172   58  1   0.70000     31.407010282700     13.052303371500    -30.275522904900
     173   58  2  -0.35000     32.390228246300     13.431547167100    -30.760349244400
     174   58  2  -0.35000     30.423792319000     12.673059575900    -29.790696565400
     175   59  1   0.70000    -12.129682860100     19.994124108300    -30.077760996300
     176   59  2  -0.35000    -12.398892523700     20.855095000700    -30.807045083200
     177   59  2  -0.35000    -11.860473196500     19.133153216000    -29.348476909300
     178   60  1   0.70000      6.718036800100    -19.592558789700     -0.733508140643
     179   60  2  -0.35000      6.716563901930    -20.744102737900     -0.873309306897
     180   60  2  -0.35000      6.719509698280    -18.441014841600     -0.593706974389
     181   61  1   0.70000    -22.925603891200     22.829675827500     40.820224460900
     182   61  2  -0.35000    -22.954263952900     23.083845188500     41.951673327106
     183   61  2  -0.35000    -22.896943829400     22.575506466400     39.688775594800
     184   62  1   0.70000    -22.693134171100     -0.369340123146    -18.308104445000
     185   62  2  -0.35000    -22.325743087500     -0.789555862744    -19.324983259800
     186   62  2  -0.35000    -23.060525254700      0.050875616452    -17.291225630300
     187   63  1   0.70000    -11.212816912900     13.526504698600     39.345728044300
     188   63  2  -0.35000    -11.810575823000     12.585992598600     39.667785919600
     189   63  2  -0.35000    -10.615058002800     14.467016798700     39.023670169000
     190   64  1   0.70000    -39.154240177600    -35.680447812100    -31.548139807700
     191   64  2  -0.35000    -39.038491260400    -34.626151884400    -31.078392764000
     192   64  2  -0.35000    -39.269989094900    -36.734743739800    -32.017886851300
     193   65  1   0.70000    -23.665554111000     16.359970359200      8.866576550770
     194   65  2  -0.35000    -23.648908098800     17.006647251400      7.903699659710
     195   65  2  -0.35000    -23.682200123300     15.713293467000      9.829453441830
     196   66  1   0.70000     -1.645146151550    -14.239201749600    -34.146197917000
     197   66  2  -0.35000     -1.201896150040    -14.138265094000    -35.213409811500
     198   66  2  -0.35000     -2.088396153060    -14.340138405300    -33.078986022500
     199   67  1   0.70000     22.206176406600     33.038014161100    -29.884874407700
     200   67  2  -0.35000     21.167614275800     32.687706839100    -30.264707898500
     201   67  2  -0.35000     23.244738537300     33.388321483000    -29.505040916900
     202   68  1   0.70000    -31.591366453800     18.498867313400    -18.469199688300
     203   68  2  -0.35000    -30.569912014300     18.496149976400    -19.018948216400
     204   68  2  -0.35000    -32.612820893300     18.501584650300    -17.919451160200
     205   69  1   0.70000    -38.298693771600    -41.034098079200    -15.197929853400
     206   69  2  -0.35000    -38.454713964200    -41.593631484706    -14.193848149700
     207   69  2  -0.35000    -38.142673578900    -40.474564673700    -16.202011557100
     208   70  1   0.70000     -4.973953903590     21.582670198800     15.663882051400
     209   70  2  -0.35000     -5.973760940520     21.123242565100     16.031185928700
     210   70  2  -0.35000     -3.974146866660     22.042097832500     15.296578174100
     211   71  1   0.70000     40.691871347800    -33.429921200100    -38.862832119000
     212   71  2  -0.35000     40.738416171800    -33.086890756900    -39.969974248300
     213   71  2  -0.35000     40.645326523800    -33.772951643200    -37.755689989700
     214   72  1   0.70000     11.786743633600    -33.930470615900      6.876061653210
     215   72  2  -0.35000     12.475002112000    -33.765716719300      7.795167969330
     216   72  2  -0.35000     11.098485155100    -34.095224512500      5.956955337080
     217   73  1   0.70000    -25.658860829800    -19.169624068500      0.036041108153
     218   73  2  -0.35000    -25.574399672900    -20.111082064100     -0.636359929471
     219   73  2  -0.35000    -25.743321986800    -18.228166072800      0.708442145778
     220   74  1   0.70000    -14.977302832300    -17.111771185900      6.697195807930
     221   74  2  -0.35000    -15.196325941300    -17.416546117900      5.599588811540
     222   74  2  -0.35000    -14.758279723200    -16.806996253900      7.794802804330
     223   75  1   0.70000    -22.939082761000    -11.940079139300     20.999890525800
     224   75  2  -0.35000    -22.341727175600    -11.093122727300     21.520881063900
     225   75  2  -0.35000    -23.536438346400    -12.787035551200     20.478899987700
     226   76  1   0.70000    -35.360152654300    -17.627340419300    -11.537989390900
     227   76  2  -0.35000    -34.421743827900    -18.063617107400    -12.062061452700
     228   76  2  -0.35000    -36.298561480600    -17.191063731200    -11.013917329000
     229   77  1   0.70000    -34.482057533100      9.825126102360     32.511000248200
     230   77  2  -0.35000    -33.412185920700      9.385445130150     32.423505244900
     231   77  2  -0.35000    -35.551929145500     10.264807074600     32.598495251500
     232   78  1   0.70000     -5.216319352540    -29.616112542000      9.354511079980
     233   78  2  -0.35000     -4.612470572640    -29.363163877100      8.396918461000
     234   78  2  -0.35000     -5.820168132440    -29.869061206900     10.312103699000
     235   79  1   0.70000    -17.939786006100      2.776957171520    -16.376666656900
     236   79  2  -0.35000    -18.389833343500      3.807584220540    -16.092298445100
     237   79  2  -0.35000    -17.489738668700      1.746330122500    -16.661034868800
     238   80  1   0.70000    -10.614213243800    -31.091449145400     10.640505041400
     239   80  2  -0.35000    -10.823445952200    -31.683250236500     11.616001398200
     240   80  2  -0.35000    -10.404980535300    -30.499648054200      9.665008684500
     241   81  1   0.70000     36.843747084100    -14.606482029700     36.384624444200
     242   81  2  -0.35000     36.456834279000    -15.699994813700     36.395950183500
     243   81  2  -0.35000     37.230659889200    -13.512969245600     36.373298704900
     244   82  1   0.70000     38.441858087200     14.561737174700    -28.829981574600
     245   82  2  -0.35000     38.731820217600     14.740591067800    -27.721138372000
     246   82  2  -0.35000     38.151895956900     14.382883281600    -29.938824777100
     247   83  1   0.70000     22.139447912900    -23.465053517900      2.837223631510
     248   83  2  -0.35000     21.043955261900    -23.647717586400      2.502365915890
     249   83  2  -0.35000     23.234940563900    -23.282389449500      3.172081347130
     250   84  1   0.70000     40.843851471800     31.496033080100      8.535783276310
     251   84  2  -0.35000     41.188819176406     32.322423336200      7.798439104650
     252   84  2  -0.35000     40.498883767200     30.669642824100      9.273127447970
     253   85  1   0.70000     27.221610464100     24.104977168400     26.660088683000
     254   85  2  -0.35000     28.261564175000     23.895375012900     27.129304215100
     255   85  2  -0.35000     26.181656753200     24.314579323900     26.190873150900
     256   86  1   0.70000    -29.186586895200     23.330058589000    -29.146873477000
     257   86  2  -0.35000    -28.928670552000     24.004226155800    -30.054935838200
     258   86  2  -0.35000    -29.444503238500     22.655891022200    -28.238811115900
     259   87  1   0.70000     27.334323538500    -34.485449335900     22.139130280800
     260   87  2  -0.35000     28.128641710700    -34.763592906800     21.340822824200
     261   87  2  -0.35000     26.540005366300    -34.207305765000     22.937437737400
     262   88  1   0.70000     -9.666233050420    -19.924217895400    -13.819510683400
     263   88  2  -0.35000    -10.814086081600    -19.806126090500    -13.700818879200
     264   88  2  -0.35000     -8.518380019220    -20.042309700400    -13.938202487500
     265   89  1   0.70000    -36.702565159100    -16.216018071800     25.216818867000
     266   89  2  -0.35000    -37.539736631900    -16.405085773700     24.436436057600
     267   89  2  -0.35000    -35.865393686400    -16.026950370000     25.997201676500
     268   90  1   0.70000     39.356768834500    -29.995064183100     35.000442341900
     269   90  2  -0.35000     40.222239157900    -29.247625180000     34.805773248600
     270   90  2  -0.35000     38.491298511100    -30.742503186300     35.195111435200
     271   91  1   0.70000     16.323048607900     23.885292172100     19.042396059200
     272   91  2  -0.35000     16.778852384800     24.273515828400     18.048854258500
     273   91  2  -0.35000     15.867244831100     23.497068515800     20.035937859900
     274   92  1   0.70000     30.610280795900      4.022688832570     36.682464241400
     275   92  2  -0.35000     29.649227271400      4.491279540040     37.132351862800
     276   92  2  -0.35000     31.571334320400      3.554098125100     36.232576619900
     277   93  1   0.70000    -27.511480800300     13.610379927200     16.180176778500
     278   93  2  -0.35000    -27.979301041800     12.880507588900     15.409442977900
     279   93  2  -0.35000    -27.043660558800     14.340252265600     16.950910579100
     280   94  1   0.70000     20.262855838300     11.508186565400    -40.625357820100
     281   94  2  -0.35000     20.661422884500     10.955810539900    -41.564306719706
     282   94  2  -0.35000     19.864288792100     12.060562590900    -39.686408920500
     283   95  1   0.70000     15.819349201600    -38.426216951700     21.405450688900
     284   95  2  -0.35000     15.763861224100    -37.534068323000     20.666132145400
     285   95  2  -0.35000     15.874837179200    -39.318365580300     22.144769232400
     286   96  1   0.70000    -16.245507789900     -2.210470537450     -5.313993548890
     287   96  2  -0.35000    -16.594173021900     -2.760606066510     -6.273880758750
     288   96  2  -0.35000    -15.896842557800     -1.660335008380     -4.354106339040
     289   97  1   0.70000    -25.663373694700      8.000604859420    -13.043953130100
     290   97  2  -0.35000    -26.449746393000      8.510717120170    -12.360576615400
     291   97  2  -0.35000    -24.877000996400      7.490492598680    -13.727329644800
     292   98  1   0.70000     -7.643711180130    -19.776196987800     38.315998053300
     293   98  2  -0.35000     -6.920043692980    -20.680927029800     38.257955662300
     294   98  2  -0.35000     -8.367378667270    -18.871466945800     38.374040444300
     295   99  1   0.70000    -18.916232375500    -27.812802466200     28.636136949200
     296   99  2  -0.35000    -19.300183665300    -28.907416437000     28.634847786500
     297   99  2  -0.35000    -18.532281085800    -26.718188495400     28.637426111900
     298  100  1   0.70000    -36.479115026700     18.687766429400    -11.206432265000
     299  100  2  -0.35000    -37.002267771400     17.658665808700    -11.319847952700
     300  100  2  -0.35000    -35.955962282100     19.716867050100    -11.093016577300
     301  101  1   0.70000     19.718712726400    -36.985657904900    -20.051090783900
     302  101  2  -0.35000     20.075860110200    -36.109900353900    -19.379455125200
     303  101  2  -0.35000     19.361565342500    -37.861415455900    -20.722726442600
     304  102  1   0.70000    -12.817376996500     12.368610997100    -25.391664433300
     305  102  2  -0.35000    -13.132351772600     12.223883445700    -26.498662548200
     306  102  2  -0.35000    -12.502402220500     12.513338548500    -24.284666318500
     307  103  1   0.70000    -18.029075271700     11.734834488600    -38.206273946400
     308  103  2  -0.35000    -17.639490530100     11.663954199600    -39.296594868800
     309  103  2  -0.35000    -18.418660013300     11.805714777600    -37.115953024100
     310  104  1   0.70000      3.880892551700     -7.126610652180    -21.385088471700
     311  104  2  -0.35000      3.976083382560     -7.511244231390    -22.475315840500
     312  104  2  -0.35000      3.785701720840     -6.741977072980    -20.294861103000
     313  105  1   0.70000     28.124396357900     -9.344164922050     -3.489235371740
     314  105  2  -0.35000     28.231696077200     -9.977822206590     -4.454929534500
     315  105  2  -0.35000     28.017096638500     -8.710507637500     -2.523541208990
     316  106  1   0.70000     22.815283871000     -0.703804162459      8.014050500970
     317  106  2  -0.35000     22.420077334800     -1.794292611870      8.029758314060
     318  106  2  -0.35000     23.210490407300      0.386684286952      7.998342687880
     319  107  1   0.70000     31.039944576500    -16.773780612100      0.211956415632
     320  107  2  -0.35000     29.990226401800    -17.062600638000      0.612299701475
     321  107  2  -0.35000     32.089662751100    -16.484960586200     -0.188386870212
     322  108  1   0.70000     32.802857726700     19.003502889500     14.173444392300
     323  108  2  -0.35000     32.383018949800     19.071486176600     15.252663403400
     324  108  2  -0.35000     33.222696503700     18.935519602400     13.094225381100
     325  109  1   0.70000    -34.398493817800     38.192253708100     -0.451338453245
     326  109  2  -0.35000    -35.109490622900     38.041077545800     -1.355345815550
     327  109  2  -0.35000    -33.687497012700     38.343429870400      0.452668909056
     328  110  1   0.70000     26.998095254400     31.281173849000    -14.675614925100
     329  110  2  -0.35000     27.735477041600     30.423030253200    -14.931461888600
     330  110  2  -0.35000     26.260713467200     32.139317444900    -14.419767961500
     331  111  1   0.70000     11.049903531000     -0.535992943995     13.314452136900
     332  111  2  -0.35000     10.211806913200     -1.337255946050     13.280222605400
     333  111  2  -0.35000     11.888000148700      0.265270058064     13.348681668300
     334  112  1   0.70000    -11.845841084400      7.119605024640    -28.765380050400
     335  112  2  -0.35000    -10.865878377000      7.683582402350    -28.506145389000
     336  112  2  -0.35000    -12.825803791700      6.555627646930    -29.024614711700
     337  113  1   0.70000     37.162395193300      0.788735019896     40.188630933200
     338  113  2  -0.35000     37.759432700200      0.973922835592     39.211465804800
     339  113  2  -0.35000     36.565357686400      0.603547204200     41.165796061706
     340  114  1   0.70000    -25.371446794300     -4.250629178140    -29.665146748300