LAMMPS Atom File

         3000 atoms
         2000 bonds
         1000 angles
           0 dihedrals
           0 impropers

           2 atom types
           1 bond types
           1 angle types

         0.0  1184.17626791 xlo xhi
         0.0  1184.17626791 ylo yhi
         0.0  1184.17626791 zlo zhi

Masses

         1   12.01070
         2   15.99990

Atoms

       1    1  1   0.70000   -333.732118848000    470.936114917000   -465.777089410000
       2    1  2  -0.35000   -334.129236968000    471.182264479000   -466.838836833000
       3    1  2  -0.35000   -333.335000727000    470.689965355000   -464.715341986000
       4    2  1   0.70000    505.128365850000    262.101694818000   -495.918650019000
       5    2  2  -0.35000    505.342219226000    260.965988041000   -496.018834108000
       6    2  2  -0.35000    504.914512475000    263.237401594000   -495.818465930000
       7    3  1   0.70000    149.159288015000    443.463909675000      6.342946950900
       8    3  2  -0.35000    148.286329487000    442.787454531000      5.988049997840
       9    3  2  -0.35000    150.032246542000    444.140364820000      6.697843903960
      10    4  1   0.70000   -189.190869528000    238.346002455000   -587.946219745000
      11    4  2  -0.35000   -188.901218213000    238.970389214000   -588.879945235000
      12    4  2  -0.35000   -189.480520843000    237.721615695000   -587.012494255000
      13    5  1   0.70000   -523.626470701000    334.762530107000   -233.689344337000
      14    5  2  -0.35000   -523.858259791000    333.696073623000   -233.296222999000
      15    5  2  -0.35000   -523.394681612000    335.828986591000   -234.082465674000
      16    6  1   0.70000    351.166295854000    -25.841066595000   -172.246349057000
      17    6  2  -0.35000    351.852967560000    -26.547192923900   -172.859103148000
      18    6  2  -0.35000    350.479624148000    -25.134940266100   -171.633594966000
      19    7  1   0.70000     78.517175846400   -456.180996295000    536.871295664000
      20    7  2  -0.35000     78.520819034000   -456.988492182000    537.704084425000
      21    7  2  -0.35000     78.513532658800   -455.373500409000    536.038506902000
      22    8  1   0.70000   -206.295951776000   -580.416081150000   -252.826676703000
      23    8  2  -0.35000   -206.628479629000   -581.285357318000   -253.519052446000
      24    8  2  -0.35000   -205.963423923000   -579.546804981000   -252.134300959000
      25    9  1   0.70000   -135.949946973000     66.746329551000    327.296367548000
      26    9  2  -0.35000   -136.240055850000     66.227052664500    328.292253261000
      27    9  2  -0.35000   -135.659838097000     67.265606437500    326.300481834000
      28   10  1   0.70000    252.403027892000   -315.960733870000   -518.109879929000
      29   10  2  -0.35000    251.373923743000   -315.557727110000   -518.462201090000
      30   10  2  -0.35000    253.432132042000   -316.363740631000   -517.757558769000
      31   11  1   0.70000   -308.343028641000    580.859351336000    113.766539798000
      32   11  2  -0.35000   -308.093084597000    580.055190107000    112.968759945000
      33   11  2  -0.35000   -308.592972684000    581.663512565000    114.564319650000
      34   12  1   0.70000   -248.262451373000    403.790018025000     62.034966686900
      35   12  2  -0.35000   -247.196450339000    403.332813349000     62.049308264600
      36   12  2  -0.35000   -249.328452406000    404.247222702000     62.020625109200
      37   13  1   0.70000    348.848765776000     18.326526640500    103.121579187000
      38   13  2  -0.35000    347.788990240000     18.394648656600    103.588307379000
      39   13  2  -0.35000    349.908541311000     18.258404624300    102.654850994000
      40   14  1   0.70000    587.216436274000   -253.330789943000    422.532087315000
      41   14  2  -0.35000    587.657704775000   -252.386004877000    423.040283427000
      42   14  2  -0.35000    586.775167773000   -254.275575010000    422.023891203000
      43   15  1   0.70000    540.199179441000    373.959863441000   -376.290750419000
      44   15  2  -0.35000    539.831099018000    373.994388987000   -375.191239260000
      45   15  2  -0.35000    540.567259865000    373.925337895000   -377.390261578000
      46   16  1   0.70000   -293.586925973000    344.221450610000    457.640541552000
      47   16  2  -0.35000   -294.312639328000    343.509929220000    457.081365874000
      48   16  2  -0.35000   -292.861212618000    344.932971999000    458.199717230000
      49   17  1   0.70000    -55.830579823000    421.078628377000    336.364939995000
      50   17  2  -0.35000    -56.568358063400    420.642731232000    335.583097973000
      51   17  2  -0.35000    -55.092801582600    421.514525522000    337.146782016000
      52   18  1   0.70000     66.229623817500    520.584756034000   -475.064073812000
      53   18  2  -0.35000     66.408542136900    519.542480628000   -475.540781494000
      54   18  2  -0.35000     66.050705498100    521.627031439000   -474.587366131000
      55   19  1   0.70000    554.440020025000    134.097712260000    466.203661896000
      56   19  2  -0.35000    553.698734506000    134.164862001000    467.093373473000
      57   19  2  -0.35000    555.181305544000    134.030562518000    465.313950318000
      58   20  1   0.70000   -344.073026541000    486.880555462000   -502.223693486000
      59   20  2  -0.35000   -343.177173593000    486.563211148000   -501.558606963000
      60   20  2  -0.35000   -344.968879489000    487.197899776000   -502.888780008000
      61   21  1   0.70000   -275.809543154000   -525.241344334000    130.477114733000
      62   21  2  -0.35000   -275.585446183000   -525.748865440000    129.458388629000
      63   21  2  -0.35000   -276.033640126000   -524.733823227000    131.495840836000
      64   22  1   0.70000    -46.476731463400   -498.157704408000   -550.356800546000
      65   22  2  -0.35000    -47.573765018900   -497.802341569000   -550.230964815000
      66   22  2  -0.35000    -45.379697907900   -498.513067246000   -550.482636278000
      67   23  1   0.70000    -15.033357122100    110.162667049000    409.607181265000
      68   23  2  -0.35000    -14.459953368000    109.454336842000    408.889492996000
      69   23  2  -0.35000    -15.606760876200    110.870997257000    410.324869535000
      70   24  1   0.70000      6.951451148410   -104.921532633000    -85.362283289800
      71   24  2  -0.35000      6.765323831300   -103.972324383000    -84.722001851400
      72   24  2  -0.35000      7.137578465510   -105.870740883000    -86.002564728200
      73   25  1   0.70000    117.205547060000    493.489036561000     68.270463204500
      74   25  2  -0.35000    118.001104710000    493.646727404000     67.441113083900
      75   25  2  -0.35000    116.409989409000    493.331345718000     69.099813325200
      76   26  1   0.70000   -275.084630405000    270.139703823000   -463.259561193000
      77   26  2  -0.35000   -275.902918057000    270.924001621000   -463.012817840000
      78   26  2  -0.35000   -274.266342753000    269.355406025000   -463.506304546000
      79   27  1   0.70000    585.665401827000   -478.006051533000    442.460742524000
      80   27  2  -0.35000    585.374105261000   -477.230835456000    443.273014858000
      81   27  2  -0.35000    585.956698393000   -478.781267609000    441.648470189000
      82   28  1   0.70000    -62.788386613800     10.073994294900    295.000639982000
      83   28  2  -0.35000    -63.109312015000      9.624773946160    293.980440019000
      84   28  2  -0.35000    -62.467461212600     10.523214643600    296.020839945000
      85   29  1   0.70000    446.329397573000   -213.628266435000      8.816487661470
      86   29  2  -0.35000    447.208904189000   -214.326900942000      9.106277134090
      87   29  2  -0.35000    445.449890958000   -212.929631927000      8.526698188850
      88   30  1   0.70000    514.669782159000    387.555471044000    523.966693141000
      89   30  2  -0.35000    514.869149298000    388.144713883000    524.945797641000
      90   30  2  -0.35000    514.470415021000    386.966228206000    522.987588641000
      91   31  1   0.70000   -123.474755850000   -283.070906372000   -497.601291622000
      92   31  2  -0.35000   -123.952349069000   -282.374254899000   -498.396390007000
      93   31  2  -0.35000   -122.997162630000   -283.767557845000   -496.806193237000
      94   32  1   0.70000    251.815043381000   -474.927703581000   -498.599136250000
      95   32  2  -0.35000    251.849320545000   -475.308847123000   -499.694195461000
      96   32  2  -0.35000    251.780766218000   -474.546560039000   -497.504077038000
      97   33  1   0.70000   -521.614290414000   -180.161071161000   -429.434834097000
      98   33  2  -0.35000   -520.913414493000   -179.792475544000   -428.587184279000
      99   33  2  -0.35000   -522.315166335000   -180.529666779000   -430.282483915000
     100   34  1   0.70000    385.706956203000   -482.617970398000     57.235990558700
     101   34  2  -0.35000    385.165552796000   -482.742446532000     58.254316657100
     102   34  2  -0.35000    386.248359611000   -482.493494264000     56.217664460400
     103   35  1   0.70000    190.538570820000   -550.599725165000   -344.921312523000
     104   35  2  -0.35000    191.119059650000   -550.254796817000   -343.978096136000
     105   35  2  -0.35000    189.958081990000   -550.944653514000   -345.864528911000
     106   36  1   0.70000    127.825636454000    284.876128972000   -315.200655431000
     107   36  2  -0.35000    126.976908880000    285.279132413000   -314.520324826000
     108   36  2  -0.35000    128.674364028000    284.473125532000   -315.880986036000
     109   37  1   0.70000    449.754725348000   -519.514781630000    380.744344203000
     110   37  2  -0.35000    449.953393560000   -520.656045313000    380.683944308000
     111   37  2  -0.35000    449.556057136000   -518.373517947000    380.804744097000
     112   38  1   0.70000    -82.117016879000   -528.251253857000    320.570434506000
     113   38  2  -0.35000    -81.148247287100   -527.798075014000    321.019560784000
     114   38  2  -0.35000    -83.085786470900   -528.704432701000    320.121308228000
     115   39  1   0.70000    408.479565126000    -59.707110541000   -510.726789393000
     116   39  2  -0.35000    408.583635706000    -59.566899145700   -509.580006903000
     117   39  2  -0.35000    408.375494546000    -59.847321936300   -511.873571883000
     118   40  1   0.70000   -166.574295290000   -367.004623454000    -78.943138733900
     119   40  2  -0.35000   -167.092660090000   -367.944317574000    -79.383448733600
     120   40  2  -0.35000   -166.055930491000   -366.064929335000    -78.502828734200
     121   41  1   0.70000    445.793793382000   -540.882941241000    170.628374880000
     122   41  2  -0.35000    445.065960419000   -541.630386937000    170.121241654000
     123   41  2  -0.35000    446.521626346000   -540.135495545000    171.135508106000
     124   42  1   0.70000    417.015117364000    438.472937347000   -168.598401598000
     125   42  2  -0.35000    415.975147772000    438.112643662000   -168.964805348000
     126   42  2  -0.35000    418.055086956000    438.833231031000   -168.231997847000
     127   43  1   0.70000   -409.195220409000   -256.794900635000   -340.451038972000
     128   43  2  -0.35000   -410.114038255000   -257.014830413000   -339.777982765000
     129   43  2  -0.35000   -408.276402563000   -256.574970856000   -341.124095180000
     130   44  1   0.70000   -474.124265361000   -538.024205483000     58.367482737700
     131   44  2  -0.35000   -474.307006604000   -538.506761917000     59.406398002000
     132   44  2  -0.35000   -473.941524119000   -537.541649049000     57.328567473400
     133   45  1   0.70000    316.186639982000   -276.519036836000   -297.551926036000
     134   45  2  -0.35000    317.194823662000   -276.026008120000   -297.845334206000
     135   45  2  -0.35000    315.178456303000   -277.012065552000   -297.258517865000
     136   46  1   0.70000    551.175735556000    146.907189055000   -182.788861825000
     137   46  2  -0.35000    550.960000808000    147.390103129000   -183.821263160000
     138   46  2  -0.35000    551.391470305000    146.424274982000   -181.756460490000
     139   47  1   0.70000    -48.356485517300     13.098308861500     27.644945711900
     140   47  2  -0.35000    -49.091686435700     13.110004649900     28.542131767400
     141   47  2  -0.35000    -47.621284598800     13.086613073000     26.747759656500
     142   48  1   0.70000    274.345631818000   -187.104189005000    277.895879243000
     143   48  2  -0.35000    273.616790327000   -186.370345661000    278.421106839000
     144   48  2  -0.35000    275.074473308000   -187.838032349000    277.370651647000
     145   49  1   0.70000    431.127804509000    242.291749850000   -466.139931022000
     146   49  2  -0.35000    431.971281042000    241.729802561000   -466.704167304000
     147   49  2  -0.35000    430.284327977000    242.853697140000   -465.575694739000
     148   50  1   0.70000    164.444996975000   -419.407366042000    497.989766589000
     149   50  2  -0.35000    163.948613638000   -419.518274907000    499.032312898000
     150   50  2  -0.35000    164.941380312000   -419.296457177000    496.947220280000
     151   51  1   0.70000     30.069778994000    118.178204549000   -591.731972089000
     152   51  2  -0.35000     31.027156670400    117.719524398000   -592.199562191960
     153   51  2  -0.35000     29.112401317700    118.636884700000   -591.264381986000
     154   52  1   0.70000   -449.816775574000    183.985536799000    344.461587621000
     155   52  2  -0.35000   -448.688169081000    183.851252154000    344.693568262000
     156   52  2  -0.35000   -450.945382067000    184.119821444000    344.229606981000
     157   53  1   0.70000    -31.807230652000    588.328062992000   -266.577993497000
     158   53  2  -0.35000    -31.486711098800    589.359298834000   -267.001573306000
     159   53  2  -0.35000    -32.127750205100    587.296827150000   -266.154413689000
     160   54  1   0.70000   -452.536958284000    134.375091699000   -125.684067564000
     161   54  2  -0.35000   -451.508816288000    133.976145885000   -126.043742798000
     162   54  2  -0.35000   -453.565100279000    134.774037514000   -125.324392330000
     163   55  1   0.70000   -422.183830261000   -574.104444830000   -183.083586515000
     164   55  2  -0.35000   -422.397891140000   -573.622947810000   -184.116997643000
     165   55  2  -0.35000   -421.969769382000   -574.585941850000   -182.050175387000
     166   56  1   0.70000     70.413934615800   -538.325410234000   -565.435432129000
     167   56  2  -0.35000     70.825360260800   -538.901622693000   -566.354294545000
     168   56  2  -0.35000     70.002508970800   -537.749197774000   -564.516569712000
     169   57  1   0.70000    441.048205980000   -256.174918783000    224.054225462000
     170   57  2  -0.35000    440.880114385000   -255.408822589000    224.908884363000
     171   57  2  -0.35000    441.216297575000   -256.941014977000    223.199566561000
     172   58  1   0.70000    450.539188574000    177.104919907000   -414.177834653000
     173   58  2  -0.35000    451.695815786000    177.177846188000   -414.127882180000
     174   58  2  -0.35000    449.382561361000    177.031993625000   -414.227787125000
     175   59  1   0.70000   -186.479261101000    266.548479171000   -456.008016419000
     176   59  2  -0.35000   -185.493883790000    267.042487847000   -455.646648209000
     177   59  2  -0.35000   -187.464638412000    266.054470495000   -456.369384629000
     178   60  1   0.70000     82.327709060700   -229.848371234000    -50.975837007500
     179   60  2  -0.35000     83.242514032700   -229.354398006000    -51.490348729800
     180   60  2  -0.35000     81.412904088600   -230.342344463000    -50.461325285200
     181   61  1   0.70000   -248.679806649000    327.790572329000    587.306676519000
     182   61  2  -0.35000   -248.568595875000    326.779730856000    586.748615878000
     183   61  2  -0.35000   -248.791017423000    328.801413803000    587.864737161000
     184   62  1   0.70000   -314.462917603000     20.285741555400   -294.529043316000
     185   62  2  -0.35000   -314.095526519000     19.865525815800   -295.545922131000
     186   62  2  -0.35000   -314.830308686000     20.705957295000   -293.512164502000
     187   63  1   0.70000   -168.296219226000    233.274734211000   -545.341564354000
     188   63  2  -0.35000   -167.617410101000    234.125679371000   -544.940677205000
     189   63  2  -0.35000   -168.975028351000    232.423789051000   -545.742451502000
     190   64  1   0.70000   -563.109473590000   -561.284731147000   -422.907781235000
     191   64  2  -0.35000   -562.993724673000   -560.230435219000   -422.438034192000
     192   64  2  -0.35000   -563.225222508000   -562.339027075000   -423.377528279000
     193   65  1   0.70000   -381.777905751000    343.615591929000     97.192789234500
     194   65  2  -0.35000   -381.992031886000    342.942441365000     98.112907877400
     195   65  2  -0.35000   -381.563779615000    344.288742492000     96.272670591600
     196   66  1   0.70000     -2.972629435530   -284.583833873000   -537.812844257000
     197   66  2  -0.35000     -2.529379434020   -284.482897217000   -538.880056151000
     198   66  2  -0.35000     -3.415879437030   -284.684770528000   -536.745632362000
     199   67  1   0.70000    236.451092538000    421.582652480000   -425.623948444000
     200   67  2  -0.35000    235.412530407000    421.232345158000   -426.003781935000
     201   67  2  -0.35000    237.489654669000    421.932959802000   -425.244114953000
     202   68  1   0.70000   -494.023424537000    286.521377447000   -225.046139032000
     203   68  2  -0.35000   -492.938637086000    286.714409400000   -224.683406554000
     204   68  2  -0.35000   -495.108211988000    286.328345495000   -225.408871511000
     205   69  1   0.70000    585.020779004000   -532.832851147000   -224.473324621000
     206   69  2  -0.35000    584.864758811000   -533.392384553000   -223.469242917000
     207   69  2  -0.35000    585.176799196000   -532.273317742000   -225.477406324000
     208   70  1   0.70000   -103.243915974000    275.448607013000    222.878784050000
     209   70  2  -0.35000   -104.196449082000    275.987973967000    222.494903902000
     210   70  2  -0.35000   -102.291382866000    274.909240060000    223.262664198000
     211   71  1   0.70000   -585.057757366000   -491.171086381000    586.312913824000
     212   71  2  -0.35000   -586.196310860000   -491.390065468000    586.349575792000
     213   71  2  -0.35000   -583.919203872000   -490.952107293000    586.276251855000
     214   72  1   0.70000    156.247645088000   -417.462918519000    164.317239172000
     215   72  2  -0.35000    156.033588885000   -416.871975885000    165.292209298000
     216   72  2  -0.35000    156.461701290000   -418.053861153000    163.342269047000
     217   73  1   0.70000   -336.660467034000   -259.828659156000     64.654304935700
     218   73  2  -0.35000   -337.164106074000   -260.104021231000     63.646275449400
     219   73  2  -0.35000   -336.156827994000   -259.553297080000     65.662334421900
     220   74  1   0.70000   -234.931641925000   -272.384689727000    118.487721187000
     221   74  2  -0.35000   -234.639672400000   -271.972771209000    119.532075979000
     222   74  2  -0.35000   -235.223611450000   -272.796608244000    117.443366395000
     223   75  1   0.70000   -379.232235926000   -160.975028652000    275.805950115000
     224   75  2  -0.35000   -378.107232693000   -161.076946424000    275.542168967000
     225   75  2  -0.35000   -380.357239159000   -160.873110880000    276.069731264000
     226   76  1   0.70000   -525.110172672000   -208.182591472000   -123.390662345000
     227   76  2  -0.35000   -526.006615269000   -208.493393333000   -124.058039954000
     228   76  2  -0.35000   -524.213730075000   -207.871789610000   -122.723284736000
     229   77  1   0.70000   -522.794802009000     79.548195428000    463.358785542000
     230   77  2  -0.35000   -522.617147833000     78.697123168900    462.590856506000
     231   77  2  -0.35000   -522.972456184000     80.399267687100    464.126714577000
     232   78  1   0.70000   -206.010188899000   -491.479402814000    236.899375895000
     233   78  2  -0.35000   -206.102411305000   -490.332252986000    237.044779813000
     234   78  2  -0.35000   -205.917966493000   -492.626552642000    236.753971978000
     235   79  1   0.70000   -237.377075474000    116.859881375000   -226.245036652000
     236   79  2  -0.35000   -238.021386763000    117.661534623000   -226.781520605000
     237   79  2  -0.35000   -236.732764185000    116.058228126000   -225.708552698000
     238   80  1   0.70000   -142.328992035000   -394.974113498000    139.855192869000
     239   80  2  -0.35000   -142.495360200000   -395.005235109000    141.002778630000
     240   80  2  -0.35000   -142.162623871000   -394.942991888000    138.707607108000
     241   81  1   0.70000    540.449981338000   -134.469517407000    545.641586432000
     242   81  2  -0.35000    539.968424274000   -134.361299773000    546.691344375000
     243   81  2  -0.35000    540.931538402000   -134.577735040000    544.591828490000
     244   82  1   0.70000    511.422835916000    154.119645355000   -459.373455287000
     245   82  2  -0.35000    511.577281013000    153.528859297000   -458.387190340000
     246   82  2  -0.35000    511.268390819000    154.710431412000   -460.359720235000
     247   83  1   0.70000    309.255386056000   -360.223713106000      0.665296949243
     248   83  2  -0.35000    308.159893405000   -360.406377175000      0.330439233621
     249   83  2  -0.35000    310.350878707000   -360.041049038000      1.000154664860
     250   84  1   0.70000    517.441545051000    383.790918634000    115.613862524000
     251   84  2  -0.35000    517.184733435000    384.523148859000    116.476119268000
     252   84  2  -0.35000    517.698356667000    383.058688410000    114.751605781000
     253   85  1   0.70000    362.538967419000    360.917903547000    383.206471379000
     254   85  2  -0.35000    363.377590163000    360.701176899000    383.978055108000
     255   85  2  -0.35000    361.700344674000    361.134630195000    382.434887649000
     256   86  1   0.70000   -386.167400822000    331.137806733000   -449.832696436000
     257   86  2  -0.35000   -385.294965788000    331.894521303000   -449.941508982000
     258   86  2  -0.35000   -387.039835856000    330.381092163000   -449.723883891000
     259   87  1   0.70000    367.748687739000   -488.869110508000    384.085318390000
     260   87  2  -0.35000    368.543005912000   -489.147254079000    383.287010934000
     261   87  2  -0.35000    366.954369567000   -488.590966937000    384.883625847000
     262   88  1   0.70000   -207.562218887000   -296.994300837000   -186.949995969000
     263   88  2  -0.35000   -207.630699405000   -296.963041410000   -188.107550834000
     264   88  2  -0.35000   -207.493738370000   -297.025560264000   -185.792441103000
     265   89  1   0.70000   -570.097260388000   -210.517166889000    331.824422021000
     266   89  2  -0.35000   -570.449944833000   -211.574207600000    331.502119960000
     267   89  2  -0.35000   -569.744575944000   -209.460126179000    332.146724083000
     268   90  1   0.70000    551.313353686000   -418.458159284000    518.396851308000
     269   90  2  -0.35000    550.336332714000   -418.466308922000    519.022122133000
     270   90  2  -0.35000    552.290374657000   -418.450009646000    517.771580482000
     271   91  1   0.70000    196.926672118000    280.061271411000    220.444398525000
     272   91  2  -0.35000    197.690168915000    280.026101830000    221.317001379000
     273   91  2  -0.35000    196.163175321000    280.096440992000    219.571795670000
     274   92  1   0.70000    433.712850333000     58.741206033100    548.281052268000
     275   92  2  -0.35000    434.530887726000     58.473364990100    547.503443112000
     276   92  2  -0.35000    432.894812941000     59.009047076100    549.058661424000
     277   93  1   0.70000   -371.983826272000    181.304731222000    245.369352107000
     278   93  2  -0.35000   -372.381984380000    182.311294634000    244.952338655000
     279   93  2  -0.35000   -371.585668165000    180.298167810000    245.786365559000
     280   94  1   0.70000    272.747068186000    197.257201633000   -576.662571073000
     281   94  2  -0.35000    271.764077967000    196.892303366000   -577.158735849000
     282   94  2  -0.35000    273.730058405000    197.622099900000   -576.166406297000
     283   95  1   0.70000    212.929216621000    569.361554355000    302.303897639000
     284   95  2  -0.35000    213.289028811000    569.264710808000    301.205372939000
     285   95  2  -0.35000    212.569404432000    569.458397902000    303.402422338000
     286   96  1   0.70000   -258.489748402000    -74.196890496400    -77.164016442900
     287   96  2  -0.35000   -258.838413634000    -74.747026025500    -78.123903652700
     288   96  2  -0.35000   -258.141083170000    -73.646754967300    -76.204129233000
     289   97  1   0.70000   -397.124567671000    144.991656255000   -243.063480077000
     290   97  2  -0.35000   -395.977074449000    144.839969940000   -242.986991080000
     291   97  2  -0.35000   -398.272060893000    145.143342570000   -243.139969074000
     292   98  1   0.70000    -43.296584018300   -339.130372399000    556.609281276000
     293   98  2  -0.35000    -43.088586605000   -340.034194234000    555.912543760000
     294   98  2  -0.35000    -43.504581431600   -338.226550564000    557.306018793000
     295   99  1   0.70000   -252.103018141000   -398.720378836000    461.599621229000
     296   99  2  -0.35000   -251.234267945000   -399.444323835000    461.858033177000
     297   99  2  -0.35000   -252.971768337000   -397.996433837000    461.341209280000
     298  100  1   0.70000    587.189165989000    301.875265734000   -100.096886586000
     299  100  2  -0.35000    586.979024834000    302.569146736000   -101.002408451000
     300  100  2  -0.35000    587.399307145000    301.181384731000    -99.191364720200
     301  101  1   0.70000    240.501816963000   -509.792938419000   -352.272529359000
     302  101  2  -0.35000    239.554841576000   -509.175230735000   -352.013155431000
     303  101  2  -0.35000    241.448792349000   -510.410646103000   -352.531903286000
     304  102  1   0.70000   -195.560348704000    172.861458654000   -348.087723631000
     305  102  2  -0.35000   -195.900826556000    171.905195864000   -348.649182719000
     306  102  2  -0.35000   -195.219870853000    173.817721445000   -347.526264542000
     307  103  1   0.70000   -246.679382592000    192.316606619000   -544.970720838000
     308  103  2  -0.35000   -246.289797850000    192.245726330000   -546.061041760000
     309  103  2  -0.35000   -247.068967333000    192.387486908000   -543.880399915000
     310  104  1   0.70000     21.079272136300   -160.278415082000   -280.009941333000
     311  104  2  -0.35000     21.097827774600   -160.465272291000   -278.865240467000
     312  104  2  -0.35000     21.060716498000   -160.091557874000   -281.154642199000
     313  105  1   0.70000    437.786315167000   -181.035640413000    -18.467520000300
     314  105  2  -0.35000    437.893614886000   -181.669297698000    -19.433214163100
     315  105  2  -0.35000    437.679015448000   -180.401983129000    -17.501825837600
     316  106  1   0.70000    324.071783478000     -5.149882276040    113.616206961000
     317  106  2  -0.35000    323.573106054000     -4.836976387640    114.615712204000
     318  106  2  -0.35000    324.570460901000     -5.462788164440    112.616701717000
     319  107  1   0.70000    460.166615996000   -227.488564555000    -35.040935352100
     320  107  2  -0.35000    460.301931857000   -226.565462260000    -34.351608309400
     321  107  2  -0.35000    460.031300136000   -228.411666849000    -35.730262394800
     322  108  1   0.70000    489.846522053000    291.319620505000    197.813958296000
     323  108  2  -0.35000    490.321270224000    290.458159487000    198.428855920000
     324  108  2  -0.35000    489.371773882000    292.181081523000    197.199060672000
     325  109  1   0.70000   -534.014673309000   -576.580385669000     -3.503522459030
     326  109  2  -0.35000   -533.197898504000   -577.291345531000     -3.919473167040
     327  109  2  -0.35000   -534.831448114000   -575.869425807000     -3.087571751020
     328  110  1   0.70000    383.939176030000    443.853999165000   -210.396543316000
     329  110  2  -0.35000    384.668277151000    442.992814415000   -210.127522163000
     330  110  2  -0.35000    383.210074909000    444.715183916000   -210.665564468000
     331  111  1   0.70000    170.061889358000     27.418311474800    151.960702512000
     332  111  2  -0.35000    169.223792740000     26.617048472700    151.926472980000
     333  111  2  -0.35000    170.899985976000     28.219574476800    151.994932043000
     334  112  1   0.70000   -179.078856415000    125.933254458000   -385.187217377000
     335  112  2  -0.35000   -178.361554479000    126.011044209000   -384.278907580000
     336  112  2  -0.35000   -179.796158351000    125.855464706000   -386.095527174000
     337  113  1   0.70000    530.414447888000    466.221378800000    541.797338961000
     338  113  2  -0.35000    531.020452018000    465.857508297000    540.877579617000
     339  113  2  -0.35000    529.808443757000    466.585249304000    542.717098305000
     340  114  1   0.70000    558.910752946000     24.365101780000   -576.622050089000