LAMMPS Atom File

         3000 atoms
         2000 bonds
         1000 angles
           0 dihedrals
           0 impropers

           2 atom types
           1 bond types
           1 angle types

         0.0  69.2510482506 xlo xhi
         0.0  69.2510482506 ylo yhi
         0.0  69.2510482506 zlo zhi

Masses

         1   12.01070
         2   15.99990

Atoms

       1    1  1   0.70000    -21.722060613900     27.747130973100    -28.075430583200
       2    1  2  -0.35000    -20.582503362000     27.532783251200    -28.108054560100
       3    1  2  -0.35000    -22.861617865700     27.961478694900    -28.042806606300
       4    2  1   0.70000     33.577432816700     14.139584279300    -33.317104378300
       5    2  2  -0.35000     32.782819341500     14.694923132900    -33.954119435300
       6    2  2  -0.35000     34.372046291800     13.584245425700    -32.680089321300
       7    3  1   0.70000      9.414327301220     27.826192220800      4.817473143140
       8    3  2  -0.35000      8.541368773990     27.149737076300      4.462576190080
       9    3  2  -0.35000     10.287285828500     28.502647365200      5.172370096200
      10    4  1   0.70000     -8.256664987180     14.580783124800     34.315986458700
      11    4  2  -0.35000     -8.282275318780     15.210970207000     35.289540952455
      12    4  2  -0.35000     -8.231054655580     13.950596042600     33.342431964900
      13    5  1   0.70000    -31.864224452600     20.607156107800    -10.490774801100
      14    5  2  -0.35000    -32.172793265700     19.802497190200    -11.267247153500
      15    5  2  -0.35000    -31.555655639400     21.411815025400     -9.714302448790
      16    6  1   0.70000      9.919349671070     -3.585157984670     -8.624406608660
      17    6  2  -0.35000     10.481041875200     -2.728763503320     -9.169099513060
      18    6  2  -0.35000      9.357657466910     -4.441552466020     -8.079713704260
      19    7  1   0.70000      4.689740404800    -29.188821887200     31.927442763600
      20    7  2  -0.35000      5.281809401340    -28.834519572300     32.859925564000
      21    7  2  -0.35000      4.097671408260    -29.543124202100     30.994959963200
      22    8  1   0.70000     -6.706501532340    -34.279911244900    -16.585429235600
      23    8  2  -0.35000     -6.532831210240    -34.206125293700    -15.440879432100
      24    8  2  -0.35000     -6.880171854450    -34.353697196200    -17.729979039000
      25    9  1   0.70000    -11.479223911900     -1.087230200800     18.262928200800
      26    9  2  -0.35000    -11.029274375200     -0.903266112517     19.316162566300
      27    9  2  -0.35000    -11.929173448600     -1.271194289080     17.209693835300
      28   10  1   0.70000     17.631329792400    -18.374843688400     32.738976383700
      29   10  2  -0.35000     17.180587625800    -19.408414114600     32.466646302000
      30   10  2  -0.35000     18.082071958900    -17.341273262200     33.011306465300
      31   11  1   0.70000    -17.978057212500     32.363122179800      2.997757182550
      32   11  2  -0.35000    -17.728113169000     31.558960951000      2.199977329950
      33   11  2  -0.35000    -18.228001255900     33.167283408600      3.795537035150
      34   12  1   0.70000    -15.252175975300     23.868842843900      2.497028354720
      35   12  2  -0.35000    -14.821236936400     24.574186562500      3.310896761390
      36   12  2  -0.35000    -15.683115014200     23.163499125200      1.683159948060
      37   13  1   0.70000     23.280727654400      0.655632299214      9.292404961710
      38   13  2  -0.35000     23.691782830300     -0.372903285443      8.947806364150
      39   13  2  -0.35000     22.869672478500      1.684167883870      9.637003559280
      40   14  1   0.70000    -31.564891891600    -10.493591179600     28.113192476600
      41   14  2  -0.35000    -30.666457797300    -11.209411041600     27.951891195100
      42   14  2  -0.35000    -32.463325985800     -9.777771317610     28.274493758100
      43   15  1   0.70000     33.550946853600     23.515985715100    -18.595873685800
      44   15  2  -0.35000     33.685895933600     22.375396263300    -18.758491176900
      45   15  2  -0.35000     33.415997773500     24.656575166800    -18.433256194600
      46   16  1   0.70000    -14.963470374800     19.771843453800     25.637265350700
      47   16  2  -0.35000    -15.820249572500     20.200886633400     24.983467708800
      48   16  2  -0.35000    -14.106691177200     19.342800274300     26.291062992500
      49   17  1   0.70000     -4.057269666350     26.339433267700     18.807874066400
      50   17  2  -0.35000     -4.031827490190     27.463842341900     19.091875702700
      51   17  2  -0.35000     -4.082711842520     25.215024193400     18.523872430100
      52   18  1   0.70000      0.499697956717     29.742757565300    -27.730556773300
      53   18  2  -0.35000     -0.637992473822     29.956314610400    -27.655364534700
      54   18  2  -0.35000      1.637388387260     29.529200520200    -27.805749011800
      55   19  1   0.70000     33.009322660400      9.166601482580     32.820030912100
      56   19  2  -0.35000     33.928027218300      9.119555220000     33.526691074100
      57   19  2  -0.35000     32.090618102600      9.213647745150     32.113370750000
      58   20  1   0.70000    -19.246517814700    -30.944642849700      6.090193471350
      59   20  2  -0.35000    -19.290456949500    -29.830762702200      6.411036687460
      60   20  2  -0.35000    -19.202578679900    -32.058522997300      5.769350255240
      61   21  1   0.70000     -6.272515683400    -29.499590305900    -30.421882900200
      62   21  2  -0.35000     -6.048418711980    -30.007111412500    -31.440609003600
      63   21  2  -0.35000     -6.496612654810    -28.992069199300    -29.403156796800
      64   22  1   0.70000     -4.128168055040      8.602687275880     22.686212194800
      65   22  2  -0.35000     -4.310961177210      8.031325665330     23.679052859000
      66   22  2  -0.35000     -3.945374932860      9.174048886430     21.693371530600
      67   23  1   0.70000      2.839410789390     -7.938060294870     -1.963215388810
      68   23  2  -0.35000      3.754004113460     -8.185488668150     -2.632467397910
      69   23  2  -0.35000      1.924817465330     -7.690631921590     -1.293963379720
      70   24  1   0.70000      4.105953435990     29.666018998400      4.157118201230
      71   24  2  -0.35000      4.043615508840     28.937749303200      3.256375599880
      72   24  2  -0.35000      4.168291363150     30.394288693600      5.057860802580
      73   25  1   0.70000    -13.130432997100     10.010911803200    -26.006352733400
      74   25  2  -0.35000    -12.334875346600     10.168602646600    -26.835702854000
      75   25  2  -0.35000    -13.925990647700      9.853220959880    -25.177002612800
      76   26  1   0.70000     31.431250638900    -29.181666835900     22.548472040900
      77   26  2  -0.35000     30.612962986800    -28.397369037900     22.795215394000
      78   26  2  -0.35000     32.249538291100    -29.965964634000     22.301728687900
      79   27  1   0.70000     -4.055649242690      5.760045103060     18.838417905500
      80   27  2  -0.35000     -4.743852445030      4.826531319480     18.861404165800
      81   27  2  -0.35000     -3.367446040360      6.693558886640     18.815431645100
      82   28  1   0.70000     25.024796869100    -16.714525064100     -0.634868003316
      83   28  2  -0.35000     24.364102481300    -17.440186561300     -0.016403519719
      84   28  2  -0.35000     25.685491256800    -15.988863566900     -1.253332486910
      85   29  1   0.70000     30.990364810300     22.432921188000     33.166313917100
      86   29  2  -0.35000     31.135914612200     21.670335974200     34.028218231200
      87   29  2  -0.35000     30.844815008400     23.195506401900     32.304409602900
      88   30  1   0.70000     -9.761726277090    -17.867251137200    -31.230327941400
      89   30  2  -0.35000     -8.651968095100    -17.654163540000    -30.968353795000
      90   30  2  -0.35000    -10.871484459100    -18.080338734500    -31.492302087800
      91   31  1   0.70000     16.091344822100    -24.207806962000    -30.012572611100
      92   31  2  -0.35000     16.028723590500    -24.006673488000    -28.871860593600
      93   31  2  -0.35000     16.153966053600    -24.408940436000    -31.153284628700
      94   32  1   0.70000    -33.018666718200    -10.028009145300    -20.885165642800
      95   32  2  -0.35000    -32.030733906200    -10.420221292400    -21.349663641400
      96   32  2  -0.35000    -34.006599530300     -9.635796998320    -20.420667644200
      97   33  1   0.70000     20.136033424400    -28.036924392000      1.006829536990
      98   33  2  -0.35000     19.865088928900    -29.164837894400      1.007289297620
      99   33  2  -0.35000     20.406977919800    -26.909010889500      1.006369776350
     100   34  1   0.70000     11.631681566700    -33.125636084300    -20.350628170000
     101   34  2  -0.35000     11.090278159300    -33.250112218400    -19.332302071700
     102   34  2  -0.35000     12.173084974000    -33.001159950200    -21.368954268300
     103   35  1   0.70000      8.862559844960     19.611731865400    -19.088756165300
     104   35  2  -0.35000      9.018316735240     20.093619066600    -18.045144879300
     105   35  2  -0.35000      8.706802954670     19.129844664100    -20.132367451400
     106   36  1   0.70000     23.754063050800    -31.363279321600     23.709295248300
     107   36  2  -0.35000     24.797154861300    -31.615672993700     24.149587093600
     108   36  2  -0.35000     22.710971240300    -31.110885649400     23.269003402900
     109   37  1   0.70000     -7.038211255400    -34.430140840600     11.647290152800
     110   37  2  -0.35000     -8.034352107820    -34.046812671500     11.193018299200
     111   37  2  -0.35000     -6.042070402980    -34.813469009555     12.101562006400
     112   38  1   0.70000     23.289748877000     -5.544655284420    -29.469572038100
     113   38  2  -0.35000     23.480567175500     -6.688852445300    -29.470682881200
     114   38  2  -0.35000     23.098930578500     -4.400458123540    -29.468461195100
     115   39  1   0.70000     -8.508555750360    -21.300039112600     -3.716635392320
     116   39  2  -0.35000     -7.757117819910    -21.202386315800     -4.594932021000
     117   39  2  -0.35000     -9.259993680810    -21.397691909400     -2.838338763640
     118   40  1   0.70000     27.382749023300    -30.171973753300     11.160253542300
     119   40  2  -0.35000     28.396882704800    -30.634440369300     11.481590600700
     120   40  2  -0.35000     26.368615341800    -29.709507137200     10.838916483800
     121   41  1   0.70000     26.865356922000     27.418039855600    -16.556347340800
     122   41  2  -0.35000     26.137523958400     26.670594159700    -17.063480566800
     123   41  2  -0.35000     27.593189885600     28.165485551500    -16.049214114900
     124   42  1   0.70000    -23.344725466600    -14.999347752300    -16.363468774600
     125   42  2  -0.35000    -23.979646641900    -15.969523106500    -16.398609680100
     126   42  2  -0.35000    -22.709804291300    -14.029172398000    -16.328327869100
     127   43  1   0.70000    -22.610998299800     34.056786043000     10.064574487600
     128   43  2  -0.35000    -21.614348667800     34.322318897100     10.595405736200
     129   43  2  -0.35000    -23.607647931800     33.791253188900      9.533743239070
     130   44  1   0.70000     19.436758528500    -15.529516411700    -19.564216196500
     131   44  2  -0.35000     20.452080107300    -16.033462174700    -19.317719219800
     132   44  2  -0.35000     18.421436949600    -15.025570648600    -19.810713173200
     133   45  1   0.70000     28.640740844800      6.196763190510     -7.207248977840
     134   45  2  -0.35000     29.648924524000      6.689791906300     -7.500657148350
     135   45  2  -0.35000     27.632557165700      5.703734474720     -6.913840807340
     136   46  1   0.70000     -6.172174923450      3.211958876920     -2.223034555220
     137   46  2  -0.35000     -6.821092788970      2.650120607850     -1.442750399800
     138   46  2  -0.35000     -5.523257057920      3.773797145980     -3.003318710650
     139   47  1   0.70000     14.912423402000    -10.579240355000     14.844820990800
     140   47  2  -0.35000     14.662077393200    -10.236487631400     13.765262077900
     141   47  2  -0.35000     15.162769410900    -10.921993078600     15.924379903600
     142   48  1   0.70000     25.436120829700     11.987439200800    -27.901077622100
     143   48  2  -0.35000     24.425263986900     11.619583182300    -27.466968888000
     144   48  2  -0.35000     26.446977672500     12.355295219400    -28.335186356100
     145   49  1   0.70000     10.339874692100    -25.104675520200     27.418527603800
     146   49  2  -0.35000     10.007527715400    -23.996571786000     27.333371269200
     147   49  2  -0.35000     10.672221668700    -26.212779254400     27.503683938400
     148   50  1   0.70000      0.946665157620      8.368583605160     32.772643708900
     149   50  2  -0.35000      1.688657180490      9.089024080910     33.298013444300
     150   50  2  -0.35000      0.204673134746      7.648143129410     32.247273973400
     151   51  1   0.70000    -24.856301059500     13.444596282300     18.976437000100
     152   51  2  -0.35000    -24.587527901200     14.090603107500     18.051214772100
     153   51  2  -0.35000    -25.125074217800     12.798589457000     19.901659228000
     154   52  1   0.70000     -3.399409329890     32.526988977800    -17.331237641000
     155   52  2  -0.35000     -3.423550255650     33.101152334100    -18.338885226200
     156   52  2  -0.35000     -3.375268404130     31.952825621500    -16.323590055800
     157   53  1   0.70000    -28.415193592900     11.608330536000     -3.644395785200
     158   53  2  -0.35000    -27.950739962500     11.465678691200     -2.591051930410
     159   53  2  -0.35000    -28.879647223200     11.750982380800     -4.697739639980
     160   54  1   0.70000    -24.673287465300    -33.298101371800    -15.382208176000
     161   54  2  -0.35000    -23.645145469800    -33.697047186300    -15.741883410500
     162   54  2  -0.35000    -25.701429460700    -32.899155557300    -15.022532941600
     163   55  1   0.70000      7.103928781420    -31.501519351500    -34.324133040500
     164   55  2  -0.35000      6.690522940830    -32.203714456400    -35.149734424755
     165   55  2  -0.35000      7.517334622000    -30.799324246500    -33.498531656400
     166   56  1   0.70000     27.432994257100    -13.089777187300     13.566892998800
     167   56  2  -0.35000     27.844419902100    -13.665989646800     12.648030582500
     168   56  2  -0.35000     27.021568612200    -12.513564727800     14.485755415100
     169   57  1   0.70000     26.343745916600     10.549406656200    -24.230402174700
     170   57  2  -0.35000     26.166026030000     11.688488515400    -24.101918090000
     171   57  2  -0.35000     26.521465803100      9.410324797050    -24.358886259400
     172   58  1   0.70000     -9.189289680550     18.878929520200    -24.595731260300
     173   58  2  -0.35000    -10.253036669100     19.340476843800    -24.627612483100
     174   58  2  -0.35000     -8.125542691980     18.417382196600    -24.563850037500
     175   59  1   0.70000      2.351883415070    -16.123669256200      1.435982696550
     176   59  2  -0.35000      2.082673751460    -15.262698363800      0.706698609575
     177   59  2  -0.35000      2.621093078690    -16.984640148600      2.165266783530
     178   60  1   0.70000    -13.351897316600     18.723287522900     32.473053058800
     179   60  2  -0.35000    -12.556369796400     19.559150337100     32.591667224500
     180   60  2  -0.35000    -14.147424836800     17.887424708600     32.354438893000
     181   61  1   0.70000    -18.173128918000      0.657914415052    -18.372904428500
     182   61  2  -0.35000    -18.601538102600      1.004727667730    -19.393583681900
     183   61  2  -0.35000    -17.744719733400      0.311101162378    -17.352225175100
     184   62  1   0.70000    -11.164435005400     15.701245612300    -31.670690964800
     185   62  2  -0.35000    -10.797043921800     15.281029872700    -32.687569779500
     186   62  2  -0.35000    -11.531826089000     16.121461351900    -30.653812150000
     187   63  1   0.70000    -34.185826159900     34.031148082200    -26.679943307800
     188   63  2  -0.35000    -33.300910759400     34.025743280200    -27.429940322500
     189   63  2  -0.35000    -35.070741560355     34.036552884200    -25.929946293100
     190   64  1   0.70000    -19.130732804300     20.613269309900      5.484751548150
     191   64  2  -0.35000    -20.233671814400     20.368427852300      5.747769039590
     192   64  2  -0.35000    -18.027793794300     20.858110767400      5.221734056710
     193   65  1   0.70000      1.764369620170    -16.541544274800    -32.689606200900
     194   65  2  -0.35000      1.550243484270    -17.214694838100    -31.769487558000
     195   65  2  -0.35000      1.978495756080    -15.868393711500    -33.609724843800
     196   66  1   0.70000     12.552556616400     24.199782301600    -25.176844274900
     197   66  2  -0.35000     12.995806617900     24.300718957300    -26.244056169300
     198   66  2  -0.35000     12.109306614900     24.098845645900    -24.109632380400
     199   67  1   0.70000    -28.915777816800     16.899526037200    -16.695139302900
     200   67  2  -0.35000    -29.954339947600     16.549218715200    -17.074972793600
     201   67  2  -0.35000    -27.877215686000     17.249833359200    -16.315305812100
     202   68  1   0.70000    -33.447071278900    -33.031940723400    -13.560994425900
     203   68  2  -0.35000    -34.268008869900    -33.310978895500    -14.331578081300
     204   68  2  -0.35000    -32.626133687800    -32.752902551200    -12.790410770500
     205   69  1   0.70000     -8.719633139380     15.620784342200     15.532917619900
     206   69  2  -0.35000     -8.749830141610     16.355047170400     14.635395341500
     207   69  2  -0.35000     -8.689436137150     14.886521514100     16.430439898400
     208   70  1   0.70000    -34.367542534700    -28.940097311300     34.370486186300
     209   70  2  -0.35000    -34.600849227400    -28.066556452000     33.643785178900
     210   70  2  -0.35000    -34.134235842000    -29.813638170600     35.097187193755
     211   71  1   0.70000      8.117987718150    -27.335778884300      7.427070103100
     212   71  2  -0.35000      7.982550180920    -28.469459664300      7.632069035990
     213   71  2  -0.35000      8.253425255380    -26.202098104200      7.222071170210
     214   72  1   0.70000    -23.453916820000    -14.460261035800      2.144964334970
     215   72  2  -0.35000    -23.143630061700    -13.412169225600      1.756601508580
     216   72  2  -0.35000    -23.764203578200    -15.508352846100      2.533327161360
     217   73  1   0.70000    -14.661325885900    -17.763544232500      4.765007888720
     218   73  2  -0.35000    -14.650011110900    -18.923414312500      4.751840751350
     219   73  2  -0.35000    -14.672640660800    -16.603674152600      4.778175026080
     220   74  1   0.70000    -20.339263129000     -7.074568562200     10.408170131700
     221   74  2  -0.35000    -20.934918089400     -7.583498958090     11.263614472600
     222   74  2  -0.35000    -19.743608168700     -6.565638166300      9.552725790820
     223   75  1   0.70000    -29.429060388100    -12.304301953300     -5.654962032210
     224   75  2  -0.35000    -30.144384206600    -11.443836233800     -5.349167035050
     225   75  2  -0.35000    -28.713736569700    -13.164767672900     -5.960757029370
     226   76  1   0.70000    -25.941080926900      6.145602202770     26.047703283100
     227   76  2  -0.35000    -26.760906641200      5.711561395440     26.744190451500
     228   76  2  -0.35000    -25.121255212600      6.579643010110     25.351216114700
     229   77  1   0.70000     -8.135444199430    -30.362354755900     13.164122657600
     230   77  2  -0.35000     -6.990099207750    -30.245396194800     13.305916680700
     231   77  2  -0.35000     -9.280789191110    -30.479313317100     13.022328634400
     232   78  1   0.70000    -14.426767101500      8.303547568520    -10.973005916400
     233   78  2  -0.35000    -15.453082188600      7.780404178000    -10.836630204400
     234   78  2  -0.35000    -13.400452014300      8.826690959040    -11.109381628400
     235   79  1   0.70000     -9.531291040780    -22.619771471100      8.181689316540
     236   79  2  -0.35000    -10.237885867600    -23.370345118200      7.649746696600
     237   79  2  -0.35000     -8.824696213990    -21.869197823900      8.713631936480
     238   80  1   0.70000     34.254697626200     -9.527081283020     30.561541096700
     239   80  2  -0.35000     34.088329461500     -9.558202893760     31.709126857800
     240   80  2  -0.35000     34.421065791000     -9.495959672270     29.413955335500
     241   81  1   0.70000     29.421635921400     10.618168996300    -26.672429619400
     242   81  2  -0.35000     30.299545523000      9.860030043750    -26.662426619200
     243   81  2  -0.35000     28.543726319800     11.376307948900    -26.682432619500
     244   82  1   0.70000     21.796053472500    -16.092864456400      0.182789493635
     245   82  2  -0.35000     22.209254761500    -16.245296377200      1.255929374650
     246   82  2  -0.35000     21.382852183400    -15.940432535600     -0.890350387380
     247   83  1   0.70000     30.633923762200     23.319411773200      7.646495017730
     248   83  2  -0.35000     29.887082870400     23.079356472800      8.501013674640
     249   83  2  -0.35000     31.380764654100     23.559467073500      6.791976360820
     250   84  1   0.70000     22.694556862500     21.399992201200     20.686290795600
     251   84  2  -0.35000     23.043009914300     21.723369286600     21.744405974300
     252   84  2  -0.35000     22.346103810800     21.076615115700     19.628175616900
     253   85  1   0.70000    -18.898620296700     14.932923525300    -29.495154933800
     254   85  2  -0.35000    -18.059997552100     14.716196877400    -28.723571203900
     255   85  2  -0.35000    -19.737243041400     15.149650173200    -30.266738663700
     256   86  1   0.70000     20.318456887100    -27.390105534300     23.161121424900
     257   86  2  -0.35000     20.815302643600    -27.075432395200     24.160983970300
     258   86  2  -0.35000     19.821611130700    -27.704778673400     22.161258879400
     259   87  1   0.70000     -8.774115120530    -15.885398520000     -9.319814842450
     260   87  2  -0.35000     -7.979796948300    -16.163542090900    -10.118122299000
     261   87  2  -0.35000     -9.568433292770    -15.607254949100     -8.521507385880
     262   88  1   0.70000    -32.643628289600    -13.828892042300     17.979749283500
     263   88  2  -0.35000    -33.223693606700    -13.312665669500     17.117986810500
     264   88  2  -0.35000    -32.063562972500    -14.345118415100     18.841511756500
     265   89  1   0.70000     30.830795141400    -21.922928599600     29.932480423400
     266   89  2  -0.35000     31.665136668300    -22.617471041500     30.341240760000
     267   89  2  -0.35000     29.996453614500    -21.228386157600     29.523720086800
     268   90  1   0.70000     11.701189743900     13.698258119000     10.715766861900
     269   90  2  -0.35000     10.823838113000     13.910279439500      9.987137274650
     270   90  2  -0.35000     12.578541374900     13.486236798500     11.444396449100
     271   91  1   0.70000     23.107085466600      6.109753918810    -32.756831953200
     272   91  2  -0.35000     22.606684380500      6.116113986630    -31.710333839200
     273   91  2  -0.35000     23.607486552700      6.103393850980    -33.803330067200
     274   92  1   0.70000    -19.787721734700     15.280337052500     20.610453731000
     275   92  2  -0.35000    -18.969684342100     15.012496009400     19.832844574700
     276   92  2  -0.35000    -20.605759127400     15.548178095500     21.388062887300
     277   93  1   0.70000     10.626818830400     10.267857887800    -30.769565958500
     278   93  2  -0.35000     11.752308210000     10.085799321100    -30.555724113400
     279   93  2  -0.35000      9.501329450800     10.449916454400    -30.983407803500
     280   94  1   0.70000     13.113096284600     33.687893264300     16.070579307400
     281   94  2  -0.35000     13.511663330800     33.135517238800     15.131630407700
     282   94  2  -0.35000     12.714529238400     34.240269289900     17.009528207000
     283   95  1   0.70000    -14.377994500100     -0.748848895273     -4.109550167090
     284   95  2  -0.35000    -14.339920270800     -1.906547413150     -4.171875882240
     285   95  2  -0.35000    -14.416068729300      0.408849622606     -4.047224451930
     286   96  1   0.70000    -18.836268172100      4.655812200850     -9.085783878170
     287   96  2  -0.35000    -19.119805823800      4.919445152050     -7.992301337320
     288   96  2  -0.35000    -18.552730520500      4.392179249660    -10.179266419000
     289   97  1   0.70000     -2.271809278780    -21.599956813500     30.640082038200
     290   97  2  -0.35000     -2.381303915400    -20.467404303800     30.414392567200
     291   97  2  -0.35000     -2.162314642160    -22.732509323200     30.865771509300
     292   98  1   0.70000    -18.802685926200    -24.088977798600     30.204404718000
     293   98  2  -0.35000    -19.587642572000    -23.517326508000     29.569851437200
     294   98  2  -0.35000    -18.017729280500    -24.660629089300     30.838957998900
     295   99  1   0.70000    -34.081636879600     16.423740348900     -5.087188041010
     296   99  2  -0.35000    -35.124879833755     16.219816707600     -4.622796732790
     297   99  2  -0.35000    -33.038393925500     16.627663990200     -5.551579349230
     298  100  1   0.70000     12.873379429600    -32.140394014800    -17.104405883400
     299  100  2  -0.35000     13.243071954700    -33.109047772100    -16.584177726300
     300  100  2  -0.35000     12.503686904500    -31.171740257500    -17.624634040400
     301  101  1   0.70000    -14.565990632000     11.064336344200    -21.289630293300
     302  101  2  -0.35000    -15.512966018500     11.682044028300    -21.030256365700
     303  101  2  -0.35000    -13.619015245500     10.446628660100    -21.549004220800
     304  102  1   0.70000    -12.596896663200     13.667597127100    -28.916678557100
     305  102  2  -0.35000    -13.592882100600     14.077056045900    -28.485451931800
     306  102  2  -0.35000    -11.600911225900     13.258138208300    -29.347905182300
     307  103  1   0.70000      0.283095050524     -6.816948666740    -16.223423895800
     308  103  2  -0.35000      0.560009379722     -7.658050855180    -16.972733953700
     309  103  2  -0.35000      0.006180721326     -5.975846478290    -15.474113837900
     310  104  1   0.70000     25.814701242300     -9.596511216270      0.108831000912
     311  104  2  -0.35000     25.422862209400     -9.039053618800     -0.829946501654
     312  104  2  -0.35000     26.206540275200    -10.153968813700      1.047608503480
     313  105  1   0.70000     28.303897010400     16.704567214600     11.737791725600
     314  105  2  -0.35000     29.093410860700     17.504730800400     11.451424625100
     315  105  2  -0.35000     27.514383160100     15.904403628900     12.024158826000
     316  106  1   0.70000    -31.624793977200     34.124369156700      1.162999884430
     317  106  2  -0.35000    -32.731557990800     33.843679717000      1.367662672160
     318  106  2  -0.35000    -30.518029963600     34.405058596300      0.958337096699
     319  107  1   0.70000     23.155234778300     25.104688856300    -14.058447432900
     320  107  2  -0.35000     24.046910898000     25.582855518700    -13.491111253300
     321  107  2  -0.35000     22.263558658600     24.626522194000    -14.625783612500
     322  108  1   0.70000      8.084878669100      0.134543986325      9.396926436630
     323  108  2  -0.35000      8.559626840110     -0.726917032006     10.011824060600
     324  108  2  -0.35000      7.610130498080      0.996005004656      8.782028812620
     325  109  1   0.70000    -11.902488894200      7.676968389680    -22.112048674300
     326  109  2  -0.35000    -12.730473663000      7.491591604580    -21.321051411300
     327  109  2  -0.35000    -11.074504125300      7.862345174780    -22.903045937400
     328  110  1   0.70000     33.679445599900      0.988744941441    -34.622938791000
     329  110  2  -0.35000     33.070412146000      0.166216241578    -35.168946840255
     330  110  2  -0.35000     34.288479053800      1.811273641300    -34.076930741700
     331  111  1   0.70000    -17.250129982600     -8.388578807430    -31.581508504500
     332  111  2  -0.35000    -18.088226600400     -9.189841809490    -31.615738036000
     333  111  2  -0.35000    -16.412033364900     -7.587315805370    -31.547278973100
     334  112  1   0.70000     -8.136837757020    -20.533776126000    -33.166212531200
     335  112  2  -0.35000     -7.419535821100    -20.455986374400    -32.257902734200
     336  112  2  -0.35000     -8.854139692950    -20.611565877700    -34.074522328100
     337  113  1   0.70000     26.278154334300     -5.028912832690     -6.756047526120
     338  113  2  -0.35000     25.171811123300     -4.684020963770     -6.807567409090
     339  113  2  -0.35000     27.384497545200     -5.373804701620     -6.704527643150
     340  114  1   0.70000     30.692763515600    -13.942460912300     19.115309503100