LAMMPS Atom File

         3000 atoms
         2000 bonds
         1000 angles
           0 dihedrals
           0 impropers

           2 atom types
           1 bond types
           1 angle types

         0.0  130.335462883 xlo xhi
         0.0  130.335462883 ylo yhi
         0.0  130.335462883 zlo zhi

Masses

         1   12.01070
         2   15.99990

Atoms

       1    1  1   0.70000    -39.364325230100     50.570446457500    -53.768572724200
       2    1  2  -0.35000    -39.598173870900     51.682847382100    -53.999827986000
       3    1  2  -0.35000    -39.130476589300     49.458045532900    -53.537317462400
       4    2  1   0.70000     61.826705552400     26.917842200400    -56.597388110800
       5    2  2  -0.35000     60.859412800300     26.826163029800    -57.231059683000
       6    2  2  -0.35000     62.793998304500     27.009521371000    -55.963716538600
       7    3  1   0.70000     14.678765582700     46.320508754800      5.425027033480
       8    3  2  -0.35000     13.601820785600     46.212624439600      5.007713148600
       9    3  2  -0.35000     15.755710379800     46.428393069900      5.842340918370
      10    4  1   0.70000    -16.223437659600     28.958809084000    -63.345643383000
      11    4  2  -0.35000    -16.817718512300     28.118263425100    -62.810934805100
      12    4  2  -0.35000    -15.629156806800     29.799354742900    -63.880351960900
      13    5  1   0.70000    -54.401974796700     39.622129519200    -28.133026366900
      14    5  2  -0.35000    -54.383656647900     40.063650242300    -27.060494830500
      15    5  2  -0.35000    -54.420292945500     39.180608796000    -29.205557903200
      16    6  1   0.70000     32.157265161700      1.040387207190    -13.130819909800
      17    6  2  -0.35000     32.977195137800      1.111370249730    -13.948301556000
      18    6  2  -0.35000     31.337335185600      0.969404164654    -12.313338263500
      19    7  1   0.70000      7.485302622200    -54.561531330900     56.577177328100
      20    7  2  -0.35000      6.916201438760    -53.979237467500     57.403408348900
      21    7  2  -0.35000      8.054403805640    -55.143825194300     55.750946307300
      22    8  1   0.70000    -21.682399136000    -64.149444232900    -27.145292462100
      23    8  2  -0.35000    -22.666776544000    -63.615812073300    -27.448340044200
      24    8  2  -0.35000    -20.698021728100    -64.683076392500    -26.842244880000
      25    9  1   0.70000    -13.690532820900      7.152768610260     33.914476512600
      26    9  2  -0.35000    -14.325392394900      6.670137291190     34.756866167800
      27    9  2  -0.35000    -13.055673246900      7.635399929330     33.072086857500
      28   10  1   0.70000     30.868569107600    -36.815098594200    -60.059142136300
      29   10  2  -0.35000     29.713860013000    -36.858570362800    -59.957372237800
      30   10  2  -0.35000     32.023278202200    -36.771626825600    -60.160912034800
      31   11  1   0.70000    -34.913000940500     59.505896147000      6.194676847660
      32   11  2  -0.35000    -34.767689118900     58.360659314200      6.308330141650
      33   11  2  -0.35000    -35.058312762000     60.651132979800      6.081023553670
      34   12  1   0.70000    -28.466145197000     44.990934507600      4.865329888820
      35   12  2  -0.35000    -28.024841878400     44.047163470500      4.355283214060
      36   12  2  -0.35000    -28.907448515700     45.934705544700      5.375376563570
      37   13  1   0.70000     38.486228493900      0.627902877327     15.190384597200
      38   13  2  -0.35000     38.791903756900      0.293823456004     14.122417568800
      39   13  2  -0.35000     38.180553230800      0.961982298650     16.258351625700
      40   14  1   0.70000    -60.160741902900    -25.613975616800     46.778898128100
      41   14  2  -0.35000    -59.719473401700    -24.669190550400     47.287094240100
      42   14  2  -0.35000    -60.602010404100    -26.558760683200     46.270702016200
      43   15  1   0.70000     60.909968301900     40.460396305300    -42.656425087000
      44   15  2  -0.35000     61.612312899700     40.258221731400    -43.557223348300
      45   15  2  -0.35000     60.207623704000     40.662570879200    -41.755626825700
      46   16  1   0.70000    -30.266057504100     38.087907468800     51.877279919000
      47   16  2  -0.35000    -30.042768579200     38.484165840000     52.944388797800
      48   16  2  -0.35000    -30.489346429100     37.691649097600     50.810171040200
      49   17  1   0.70000     -1.754089158280     52.392315569000     33.002725779600
      50   17  2  -0.35000     -1.715735511870     53.108824812000     33.914177096200
      51   17  2  -0.35000     -1.792442804700     51.675806326000     32.091274463000
      52   18  1   0.70000      9.262730246120     61.160749551400    -51.384762941000
      53   18  2  -0.35000      9.441648565540     60.118474145800    -51.861470622900
      54   18  2  -0.35000      9.083811926700     62.203024956900    -50.908055259100
      55   19  1   0.70000     62.206734096800     15.359543791000     52.594818440000
      56   19  2  -0.35000     62.296546551600     16.078125105600     51.688631584500
      57   19  2  -0.35000     62.116921641900     14.640962476300     53.501005295600
      58   20  1   0.70000    -38.627551860800     54.252315212300    -50.046761811500
      59   20  2  -0.35000    -37.899434055700     53.834130179000    -50.847115320800
      60   20  2  -0.35000    -39.355669665900     54.670500245500    -49.246408302200
      61   21  1   0.70000    -28.225937585000    -54.660164398300     14.721141797000
      62   21  2  -0.35000    -28.934627482700    -54.563902989300     13.807855220900
      63   21  2  -0.35000    -27.517247687400    -54.756425807300     15.634428373100
      64   22  1   0.70000     -4.702495157300    -54.572867139700    -58.640806117000
      65   22  2  -0.35000     -5.411978307030    -55.279251008100    -59.226686216200
      66   22  2  -0.35000     -3.993012007570    -53.866483271300    -58.054926017700
      67   23  1   0.70000     -1.998949039500     17.418022418300     42.563439298400
      68   23  2  -0.35000     -2.631274947790     16.805915933400     41.807734596200
      69   23  2  -0.35000     -1.366623131220     18.030128903200     43.319144000600
      70   24  1   0.70000     -0.144734885012    -12.317702008300     -8.625060028630
      71   24  2  -0.35000     -0.330862202114    -11.368493758600     -7.984778590210
      72   24  2  -0.35000      0.041392432089    -13.266910258100     -9.265341467060
      73   25  1   0.70000     14.618753171500     51.660176776400      4.251417638330
      74   25  2  -0.35000     13.928396674400     51.969678019800      5.130745158240
      75   25  2  -0.35000     15.309109668600     51.350675533000      3.372090118430
      76   26  1   0.70000    -30.771184359500     26.764520199200    -50.081787410900
      77   26  2  -0.35000    -31.016907151200     26.524970451500    -48.973709693400
      78   26  2  -0.35000    -30.525461567800     27.004069946800    -51.189865128400
      79   27  1   0.70000    -62.783784864100    -51.125507245000     50.871791329800
      80   27  2  -0.35000    -63.075081430100    -50.350291168500     51.684063664300
      81   27  2  -0.35000    -62.492488298100    -51.900723321400     50.059518995300
      82   28  1   0.70000     -9.741332765230     -0.088042924623     33.528278229500
      83   28  2  -0.35000     -8.990456917410     -0.372258716367     32.691016714300
      84   28  2  -0.35000    -10.492208613100      0.196172867120     34.365539744800
      85   29  1   0.70000     50.381719832900    -24.200975059300      2.243902530150
      86   29  2  -0.35000     49.806487703000    -25.021489049800      2.828252415220
      87   29  2  -0.35000     50.956951962800    -23.380461068900      1.659552645070
      88   30  1   0.70000     57.350696140400     45.111150630000     59.620883548900
      89   30  2  -0.35000     58.129078215500     45.855550151500     60.051685937000
      90   30  2  -0.35000     56.572314065300     44.366751108600     59.190081160900
      91   31  1   0.70000    -15.152611816800    -28.324648840000    -55.468730677600
      92   31  2  -0.35000    -14.570326890800    -28.175288652100    -54.476644089000
      93   31  2  -0.35000    -15.734896742700    -28.474009028000    -56.460817266200
      94   32  1   0.70000     26.419570064900    -48.844572524400    -51.943233198800
      95   32  2  -0.35000     26.453847228400    -49.225716066400    -53.038292410200
      96   32  2  -0.35000     26.385292901500    -48.463428982400    -50.848173987400
      97   33  1   0.70000    -61.329112247400    -19.151801813600    -46.146751291800
      98   33  2  -0.35000    -61.600056742800    -20.279715316100    -46.146291531200
      99   33  2  -0.35000    -61.058167752000    -18.023888311200    -46.147211052500
     100   34  1   0.70000     40.075508636800    -52.517991621600      7.010357887190
     101   34  2  -0.35000     39.534105229500    -52.642467755800      8.028683985510
     102   34  2  -0.35000     40.616912044200    -52.393515487500      5.992031788860
     103   35  1   0.70000     21.819452551300    -61.661260633600    -37.668666358000
     104   35  2  -0.35000     22.476734434200    -61.477070819700    -36.730767302200
     105   35  2  -0.35000     21.162170668400    -61.845450447500    -38.606565413800
     106   36  1   0.70000     14.927019272700     29.456295150500    -36.629869522800
     107   36  2  -0.35000     15.770648545500     28.666787712600    -36.527070419800
     108   36  2  -0.35000     14.083389999900     30.245802588400    -36.732668625900
     109   37  1   0.70000     45.629594595500    -58.910087552800     38.112648896500
     110   37  2  -0.35000     45.828262807500    -60.051351235900     38.052249002200
     111   37  2  -0.35000     45.430926383600    -57.768823869700     38.173048790700
     112   38  1   0.70000    -12.723484315100    -60.538559615000     37.261213874100
     113   38  2  -0.35000    -13.867262382900    -60.537357188300     37.454527830700
     114   38  2  -0.35000    -11.579706247300    -60.539762041700     37.067899917400
     115   39  1   0.70000     44.878544318600     -4.559964780340    -59.093255658000
     116   39  2  -0.35000     44.785101047300     -3.773953668300    -59.941226699200
     117   39  2  -0.35000     44.971987589900     -5.345975892380    -58.245284616700
     118   40  1   0.70000    -19.058642610900    -40.526315542900     -7.478702972420
     119   40  2  -0.35000    -19.589251217200    -40.801713077200     -6.484615096520
     120   40  2  -0.35000    -18.528034004600    -40.250918008600     -8.472790848310
     121   41  1   0.70000     49.433162550300    -62.500084635400     17.887979969100
     122   41  2  -0.35000     48.705329586700    -63.247530331300     17.380846743200
     123   41  2  -0.35000     50.160995513900    -61.752638939500     18.395113195000
     124   42  1   0.70000     45.249485367900     47.178343685900    -18.606958051600
     125   42  2  -0.35000     45.577190550200     46.642817630000    -17.631549851400
     126   42  2  -0.35000     44.921780185700     47.713869741800    -19.582366251800
     127   43  1   0.70000    -42.245038848000    -29.494063127700    -34.493038913000
     128   43  2  -0.35000    -43.370714962400    -29.690784642000    -34.692422792100
     129   43  2  -0.35000    -41.119362733600    -29.297341613400    -34.293655034000
     130   44  1   0.70000    -49.883638282200    -58.800169704700      7.400720292140
     131   44  2  -0.35000    -49.671799672500    -58.746034261000      6.261512779370
     132   44  2  -0.35000    -50.095476892000    -58.854305148500      8.539927804910
     133   45  1   0.70000     33.594691144400    -31.071079165900    -30.338340555000
     134   45  2  -0.35000     34.068949802000    -30.012860579400    -30.367532147500
     135   45  2  -0.35000     33.120432486900    -32.129297752300    -30.309148962500
     136   46  1   0.70000     60.160355197500     16.486716936200    -20.290212682900
     137   46  2  -0.35000     60.061094122800     15.700266265900    -21.137114437700
     138   46  2  -0.35000     60.259616272200     17.273167606500    -19.443310928100
     139   47  1   0.70000     -7.075959130700     -0.848117361548      3.883494754440
     140   47  2  -0.35000     -6.497873952060      0.070406241148      4.293045627380
     141   47  2  -0.35000     -7.654044309340     -1.766640964240      3.473943881490
     142   48  1   0.70000     30.306380283300    -19.229942329300     29.457373749700
     143   48  2  -0.35000     30.935071952500    -19.083983503000     28.493505083300
     144   48  2  -0.35000     29.677688614100    -19.375901155500     30.421242416100
     145   49  1   0.70000     46.156135834400     27.001688091200    -52.988023987400
     146   49  2  -0.35000     45.758317301200     27.701260862100    -53.823451035600
     147   49  2  -0.35000     46.553954367500     26.302115320300    -52.152596939200
     148   50  1   0.70000     22.005374835400    -47.468676471700     56.048859159200
     149   50  2  -0.35000     21.508991498500    -47.579585336800     57.091405468200
     150   50  2  -0.35000     22.501758172300    -47.357767606500     55.006312850100
     151   51  1   0.70000      4.793840498530     12.464309185300     61.468536196500
     152   51  2  -0.35000      5.751218174900     12.005629034700     61.000946093700
     153   51  2  -0.35000      3.836462822160     12.922989335900     61.936126299200
     154   52  1   0.70000    -48.117406143800     20.342004556700     39.952767912100
     155   52  2  -0.35000    -48.427061072000     20.396242121400     41.069357412400
     156   52  2  -0.35000    -47.807751215700     20.287766992100     38.836178411900
     157   53  1   0.70000     -4.026551457930     60.472216962200    -31.651253483000
     158   53  2  -0.35000     -3.655442704680     61.342603799500    -32.322301206100
     159   53  2  -0.35000     -4.397660211180     59.601830124900    -30.980205759800
     160   54  1   0.70000    -50.157973998400     14.492866308100    -12.538983577600
     161   54  2  -0.35000    -49.129832002900     14.093920493600    -12.898658812000
     162   54  2  -0.35000    -51.186115993800     14.891812122600    -12.179308343200
     163   55  1   0.70000    -43.076849504600    -61.257551141100    -17.744446744200
     164   55  2  -0.35000    -44.115661773900    -61.074642829000    -18.227161586000
     165   55  2  -0.35000    -42.038037235200    -61.440459453200    -17.261731902500
     166   56  1   0.70000      7.426349646810    -58.642354849900    -60.439203749300
     167   56  2  -0.35000      6.642896886740    -58.684422111200    -61.293622919400
     168   56  2  -0.35000      8.209802406880    -58.600287588600    -59.584784579100
     169   57  1   0.70000     50.149634494200    -28.539022800700     22.550995565500
     170   57  2  -0.35000     50.436612839600    -28.240258841200     21.467490362100
     171   57  2  -0.35000     49.862656148700    -28.837786760200     23.634500768900
     172   58  1   0.70000     50.205579230900     17.181499080400    -45.604159123200
     173   58  2  -0.35000     49.512703716100     18.109767054800    -45.666143707000
     174   58  2  -0.35000     50.898454745800     16.253231106000    -45.542174539400
     175   59  1   0.70000    -21.045383513300     29.417705096100    -50.698040335500
     176   59  2  -0.35000    -21.314593176900     30.278675988500    -51.427324422400
     177   59  2  -0.35000    -20.776173849700     28.556734203800    -49.968756248500
     178   60  1   0.70000      9.162558091980    -26.690141746100     -1.841217735930
     179   60  2  -0.35000      8.960408573100    -25.639510837200     -2.289447883720
     180   60  2  -0.35000      9.364707610870    -27.740772654900     -1.392987588130
     181   61  1   0.70000    -32.141706922700     34.936004508700    -65.021196496100
     182   61  2  -0.35000    -32.030496148700     33.925163035200    -65.579257137301
     183   61  2  -0.35000    -32.252917696800     35.946845982100    -64.463135854800
     184   62  1   0.70000    -32.751408139200      4.060160960090    -29.491241025000
     185   62  2  -0.35000    -32.902187662600      5.171732376630    -29.786663639600
     186   62  2  -0.35000    -32.600628615800      2.948589543540    -29.195818410300
     187   63  1   0.70000    -18.903926584900     24.138987789400    -60.364310829400
     188   63  2  -0.35000    -19.501685495100     23.198475689300    -60.042252954100
     189   63  2  -0.35000    -18.306167674800     25.079499889400    -60.686368704700
     190   64  1   0.70000    -59.746038679000    -63.659536153400    -49.409182942000
     191   64  2  -0.35000    -59.467135189400    -64.785287607800    -49.386900519600
     192   64  2  -0.35000    -60.024942168700    -62.533784698900    -49.431465364300
     193   65  1   0.70000    -42.990823083200     33.920705909000     10.284120138000
     194   65  2  -0.35000    -43.901043828800     33.203127681700     10.330807202300
     195   65  2  -0.35000    -42.080602337500     34.638284136200     10.237433073600
     196   66  1   0.70000      2.286957097990    -30.696705263600    -57.344511402200
     197   66  2  -0.35000      2.730207099500    -30.595768607900    -58.411723296600
     198   66  2  -0.35000      1.843707096480    -30.797641919200    -56.277299507700
     199   67  1   0.70000     31.327250188400     51.584197947900    -44.802989941400
     200   67  2  -0.35000     30.288688057600     51.233890626000    -45.182823432200
     201   67  2  -0.35000     32.365812319200     51.934505269900    -44.423156450600
     202   68  1   0.70000    -52.193335836700     33.893037172900    -31.331116154800
     203   68  2  -0.35000    -51.524269062000     33.823117289400    -32.276135128600
     204   68  2  -0.35000    -52.862402611500     33.962957056300    -30.386097181000
     205   69  1   0.70000     64.702764164900    -58.764749606500    -27.121720368400
     206   69  2  -0.35000     65.298122196601    -57.824178759100    -27.448025892700
     207   69  2  -0.35000     64.107406133300    -59.705320453800    -26.795414844000
     208   70  1   0.70000     -9.661507082040     33.204841084300     23.027125462300
     209   70  2  -0.35000    -10.637015929200     33.292478105900     22.405593289800
     210   70  2  -0.35000     -8.685998234850     33.117204062700     23.648657634900
     211   71  1   0.70000    -64.161717719200    -54.705297571000    -64.503380250300
     212   71  2  -0.35000    -65.098006935700    -55.329419597500    -64.221539516700
     213   71  2  -0.35000    -63.225428502700    -54.081175544500    -64.785220984000
     214   72  1   0.70000     17.835999358800    -46.801442379700     16.462858002300
     215   72  2  -0.35000     18.929251965800    -47.127464740400     16.672877424100
     216   72  2  -0.35000     16.742746751800    -46.475420018900     16.252838580400
     217   73  1   0.70000    -38.876293194800    -29.416913085800      4.757985341300
     218   73  2  -0.35000    -38.389346117700    -29.852798874000      5.716362158500
     219   73  2  -0.35000    -39.363240271900    -28.981027297600      3.799608524100
     220   74  1   0.70000    -24.876517252700    -30.204658740100     11.444207534200
     221   74  2  -0.35000    -23.773545137000    -29.860049640900     11.545682066600
     222   74  2  -0.35000    -25.979489368400    -30.549267839300     11.342733001800
     223   75  1   0.70000    -43.479312479100    -16.187379648500     27.847976535500
     224   75  2  -0.35000    -44.512394820700    -15.762661512900     27.534998292100
     225   75  2  -0.35000    -42.446230137600    -16.612097784200     28.160954778900
     226   76  1   0.70000    -52.664706919500    -25.224537999800    -14.400245683900
     227   76  2  -0.35000    -53.314702188000    -24.606803930600    -15.136119838000
     228   76  2  -0.35000    -52.014711650900    -25.842272068900    -13.664371529800
     229   77  1   0.70000    -56.736375374400      9.555661640540     50.671656367900
     230   77  2  -0.35000    -56.558721198800      8.704589381440     49.903727332300
     231   77  2  -0.35000    -56.914029550000     10.406733899600     51.439585403400
     232   78  1   0.70000    -22.338109198500    -54.739485079000     26.634635827900
     233   78  2  -0.35000    -22.008459083200    -54.876837293800     25.530975929800
     234   78  2  -0.35000    -22.667759313800    -54.602132864100     27.738295725900
     235   79  1   0.70000    -26.109239985100     12.500455402100    -25.588786445900
     236   79  2  -0.35000    -26.858901924800     12.318698423700    -26.455141671500
     237   79  2  -0.35000    -25.359578045400     12.682212380500    -24.722431220300
     238   80  1   0.70000    -17.199538641000    -44.412966030600     16.896496225200
     239   80  2  -0.35000    -17.970804648400    -44.205737037700     17.737807636300
     240   80  2  -0.35000    -16.428272633700    -44.620195023600     16.055184814100
     241   81  1   0.70000     60.321526775300    -12.294719221900     61.964947790800
     242   81  2  -0.35000     59.892274297600    -13.233579521600     62.493988099400
     243   81  2  -0.35000     60.750779253000    -11.355858922200     61.435907482300
     244   82  1   0.70000     56.368331565800     16.901432292800    -47.832538975000
     245   82  2  -0.35000     55.285056682200     16.605349947000    -48.123143123600
     246   82  2  -0.35000     57.451606449300     17.197514638600    -47.541934826300
     247   83  1   0.70000     33.863905324000    -40.818674581100      0.359670387475
     248   83  2  -0.35000     34.925128904600    -41.185577799400      0.068489103155
     249   83  2  -0.35000     32.802681743400    -40.451771362800      0.650851671795
     250   84  1   0.70000     58.802246040000     44.489880412500     11.366226218000
     251   84  2  -0.35000     59.336259196600     43.943532058200     12.239114197300
     252   84  2  -0.35000     58.268232883400     45.036228766700     10.493338238700
     253   85  1   0.70000     41.527144479900     37.396911534000     43.660412695200
     254   85  2  -0.35000     41.852347850900     37.976271944400     42.709526644100
     255   85  2  -0.35000     41.201941108900     36.817551123500     44.611298746400
     256   86  1   0.70000    -43.942535227600     36.503204126300    -47.904383612100
     257   86  2  -0.35000    -42.818120444000     36.582892422400    -47.630629763000
     258   86  2  -0.35000    -45.066950011200     36.423515830300    -48.178137461100
     259   87  1   0.70000     41.482849836800    -51.354055620400     41.667033091200
     260   87  2  -0.35000     42.277168009000    -51.632199191300     40.868725634600
     261   87  2  -0.35000     40.688531664600    -51.075912049400     42.465340547800
     262   88  1   0.70000    -23.915536605000    -34.017023706200    -21.010852803000
     263   88  2  -0.35000    -24.495601922100    -33.500797333400    -21.872615276000
     264   88  2  -0.35000    -23.335471287900    -34.533250079000    -20.149090330000
     265   89  1   0.70000    -59.912205244000    -26.060168892400     39.153482226200
     266   89  2  -0.35000    -60.502460450000    -26.147163889500     38.158680405600
     267   89  2  -0.35000    -59.321950038000    -25.973173895300     40.148284046800
     268   90  1   0.70000     60.119009609000    -44.975426232100     56.073337114100
     269   90  2  -0.35000     60.826367781400    -44.153835187400     55.660744613800
     270   90  2  -0.35000     59.411651436500    -45.797017276700     56.485929614300
     271   91  1   0.70000     24.293627666000     33.426958044600     25.620987398900
     272   91  2  -0.35000     24.749431442800     33.815181700900     24.627445598200
     273   91  2  -0.35000     23.837823889200     33.038734388300     26.614529199600
     274   92  1   0.70000     47.745857235400      6.619742550020     60.037067476000
     275   92  2  -0.35000     48.293393203800      6.913196667760     61.016704676300
     276   92  2  -0.35000     47.198321267000      6.326288432270     59.057430275800
     277   93  1   0.70000    -40.884775011000     19.508854199600     26.302144580300
     278   93  2  -0.35000    -41.013491365100     20.119827606000     27.279765977800
     279   93  2  -0.35000    -40.756058656900     18.897880793300     25.324523182800
     280   94  1   0.70000     31.683706733200     20.186382329300    -61.749849674100
     281   94  2  -0.35000     32.615988195800     19.496376544300    -61.731321555500
     282   94  2  -0.35000     30.751425270500     20.876388114200    -61.768377792700
     283   95  1   0.70000     19.713272042500     64.150302016000     36.718869317000
     284   95  2  -0.35000     19.216366372900     65.060321665400     37.239012559900
     285   95  2  -0.35000     20.210177712200     63.240282366500     36.198726074200
     286   96  1   0.70000    -29.545094007300     -9.100105557260     -6.299632042770
     287   96  2  -0.35000    -29.893759239400     -9.650241086320     -7.259519252630
     288   96  2  -0.35000    -29.196428775300     -8.549970028190     -5.339744832920
     289   97  1   0.70000    -43.036519492600     14.769264194100    -25.805641085400
     290   97  2  -0.35000    -42.342302857200     14.213204878100    -25.061019503600
     291   97  2  -0.35000    -43.730736128000     15.325323510200    -26.550262667200
     292   98  1   0.70000     -9.277078783220    -35.741985496900     62.494423449800
     293   98  2  -0.35000     -9.069081369930    -36.645807332000     61.797685933700
     294   98  2  -0.35000     -9.485076196520    -34.838163661800     63.191160966000
     295   99  1   0.70000    -30.815021514100    -42.384737297700     49.059678236900
     296   99  2  -0.35000    -30.150094975200    -41.943210041600     49.901418327500
     297   99  2  -0.35000    -31.479948053000    -42.826264553700     48.217938146400
     298  100  1   0.70000    -63.243103260500     30.208650259300     -8.964743849910
     299  100  2  -0.35000    -63.766256005200     29.179549638600     -9.078159537590
     300  100  2  -0.35000    -62.719950515900     31.237750880000     -8.851328162220
     301  101  1   0.70000     27.217880430900    -59.136958261200    -40.654722233200
     302  101  2  -0.35000     27.276385606100    -58.761296312000    -41.750648893300
     303  101  2  -0.35000     27.159375255600    -59.512620210400    -39.558795573100
     304  102  1   0.70000    -18.202924972100     20.450770456500    -37.930689028900
     305  102  2  -0.35000    -18.998087442500     20.014894370200    -38.654103628600
     306  102  2  -0.35000    -17.407762501700     20.886646542700    -37.207274429100
     307  103  1   0.70000    -27.438627427900     21.306604035900    -56.338334590800
     308  103  2  -0.35000    -26.951636880800     20.413811871900    -56.896333120300
     309  103  2  -0.35000    -27.925617975000     22.199396199800    -55.780336061200
     310  104  1   0.70000      2.147033773850    -17.521253348600    -31.632062127000
     311  104  2  -0.35000      1.025977238750    -17.734650819000    -31.840133664600
     312  104  2  -0.35000      3.268090308940    -17.307855878200    -31.423990589400
     313  105  1   0.70000     48.473487394800    -22.623742006500     -2.895218373920
     314  105  2  -0.35000     48.580787114100    -23.257399291100     -3.860912536670
     315  105  2  -0.35000     48.366187675400    -21.990084722000     -1.929524211160
     316  106  1   0.70000     32.434437624300      3.765112968410      9.443743359130
     317  106  2  -0.35000     31.660547721200      4.595017486100      9.684477464190
     318  106  2  -0.35000     33.208327527400      2.935208450720      9.203009254070
     319  107  1   0.70000     51.903656214200    -24.399920881900     -2.384825854880
     320  107  2  -0.35000     52.038972075000    -23.476818587400     -1.695498812190
     321  107  2  -0.35000     51.768340353400    -25.323023176300     -3.074152897570
     322  108  1   0.70000     51.475879735100     29.800787569000     22.709384361800
     323  108  2  -0.35000     50.492374015900     30.384976859800     22.516928203800
     324  108  2  -0.35000     52.459385454400     29.216598278200     22.901840519700
     325  109  1   0.70000    -59.698932245400    -64.892386720400     -2.404090451600
     326  109  2  -0.35000    -58.644937118600    -64.432747483000     -2.557146141740
     327  109  2  -0.35000    -60.752927372100    -65.352025957801     -2.251034761460
     328  110  1   0.70000     43.607834976100     45.352274468000    -22.270684404100
     329  110  2  -0.35000     44.301843907800     46.279881741300    -22.329814341100
     330  110  2  -0.35000     42.913826044400     44.424667194800    -22.211554467100
     331  111  1   0.70000     20.199779138600      4.076641930570     15.071521348800
     332  111  2  -0.35000     19.361682520800      3.275378928510     15.037291817400
     333  111  2  -0.35000     21.037875756300      4.877904932630     15.105750880300
     334  112  1   0.70000    -20.625983935900     13.187885049700    -40.037799922600
     335  112  2  -0.35000    -20.086498060900     12.273059730800    -40.504329264300
     336  112  2  -0.35000    -21.165469810900     14.102710368500    -39.571270581000
     337  113  1   0.70000     59.616134803500     51.762047542800     55.869485591500
     338  113  2  -0.35000     60.213172310400     51.947235358500     54.892320463100
     339  113  2  -0.35000     59.019097296600     51.576859727100     56.846650720000
     340  114  1   0.70000     61.564064320400      2.482001708150    -63.839006547900