LAMMPS Atom File

         3000 atoms
         2000 bonds
         1000 angles
           0 dihedrals
           0 impropers

           2 atom types
           1 bond types
           1 angle types

         0.0  45.1847813189 xlo xhi
         0.0  45.1847813189 ylo yhi
         0.0  45.1847813189 zlo zhi

Masses

         1   12.01070
         2   15.99990

Atoms

       1    1  1   0.70000    -14.920580854800     14.936528711200     19.891823441700
       2    1  2  -0.35000    -14.436743080600     14.174611768500     20.620509643600
       3    1  2  -0.35000    -15.404418629000     15.698445653800     19.163137239900
       4    2  1   0.70000      5.834584811440     20.185243868400     -3.079961977170
       5    2  2  -0.35000      5.531761403410     20.337682307400     -4.189313366890
       6    2  2  -0.35000      6.137408219470     20.032805429400     -1.970610587450
       7    3  1   0.70000     -2.851289688010     11.984353144400    -21.479898151700
       8    3  2  -0.35000     -3.928234485130     11.876468829300    -21.897212036600
       9    3  2  -0.35000     -1.774344890900     12.092237459600    -21.062584266800
      10    4  1   0.70000    -19.023930920900     15.327790193000    -10.705005172400
      11    4  2  -0.35000    -19.385365591500     15.885008582300    -11.656042840200
      12    4  2  -0.35000    -18.662496250300     14.770571803600     -9.753967504640
      13    5  1   0.70000     10.889853055400      4.841521939530     -9.466981523110
      14    5  2  -0.35000      9.941713287330      4.193273687170     -9.629478241470
      15    5  2  -0.35000     11.837992823500      5.489770191900     -9.304484804750
      16    6  1   0.70000      2.050269838580    -15.503165920800     19.482538014000
      17    6  2  -0.35000      2.783373050190    -15.527086866200     18.583879308200
      18    6  2  -0.35000      1.317166626960    -15.479244975400     20.381196719800
      19    7  1   0.70000     -5.992182638000    -22.203610236600     -7.086703748700
      20    7  2  -0.35000     -6.738113385790    -22.785109327954     -7.758303425780
      21    7  2  -0.35000     -5.246251890220    -21.622111145200     -6.415104071630
      22    8  1   0.70000     -2.181471704720      1.658417546590     12.070689096100
      23    8  2  -0.35000     -1.179585909570      1.079246221440     11.990780213000
      24    8  2  -0.35000     -3.183357499880      2.237588871740     12.150597979100
      25    9  1   0.70000      5.926734558140    -14.112738942400     20.672433873000
      26    9  2  -0.35000      4.789470797510    -14.025987138400     20.460997681100
      27    9  2  -0.35000      7.063998318760    -14.199490746300     20.883870065000
      28   10  1   0.70000     -9.572298362020     20.013003610200      2.234645666400
      29   10  2  -0.35000     -8.893462340590     20.933060481000      2.430290780010
      30   10  2  -0.35000    -10.251134383400     19.092946739400      2.039000552800
      31   11  1   0.70000    -11.141462026400     14.706436708400      4.833319941030
      32   11  2  -0.35000    -11.338433756100     15.643441181500      5.488167064510
      33   11  2  -0.35000    -10.944490296600     13.769432235300      4.178472817550
      34   12  1   0.70000     13.052594914800      0.720636116832      2.715075196920
      35   12  2  -0.35000     14.118595948300      0.263431440705      2.729416774630
      36   12  2  -0.35000     11.986593881400      1.177840792960      2.700733619210
      37   13  1   0.70000     20.369440576100     13.323444705600    -15.009219913000
      38   13  2  -0.35000     20.631377665300     13.796927853400    -16.035281641200
      39   13  2  -0.35000     20.107503486800     12.849961557800    -13.983158184900
      40   14  1   0.70000     -6.484818668840     17.299976600000     18.950365919000
      41   14  2  -0.35000     -5.886472942540     16.797550989300     19.807775329700
      42   14  2  -0.35000     -7.083164395140     17.802402210600     18.092956508300
      43   15  1   0.70000     -1.572385924560     22.403689073800     17.159747668000
      44   15  2  -0.35000     -0.988348123012     22.947399999054     18.001696761600
      45   15  2  -0.35000     -2.156423726120     21.859978148600     16.317798574400
      46   16  1   0.70000      2.681679260560    -22.444541312900    -16.931417766000
      47   16  2  -0.35000      2.939874270840    -21.716217605500    -17.796565102500
      48   16  2  -0.35000      2.423484250270    -23.172865020254    -16.066270429400
      49   17  1   0.70000     15.267029267700      5.355267693450    -20.221288510200
      50   17  2  -0.35000     14.869537570700      6.350394274650    -20.665499539100
      51   17  2  -0.35000     15.664520964700      4.360141112240    -19.777077481300
      52   18  1   0.70000     -9.138412868160    -21.363304046300      5.873338100950
      53   18  2  -0.35000     -9.790197494280    -20.592489729500      5.301829492080
      54   18  2  -0.35000     -8.486628242040    -22.134118363200      6.444846709830
      55   19  1   0.70000     -3.409774116240    -19.879617830600    -17.695628738900
      56   19  2  -0.35000     -3.244399040680    -20.134257499200    -18.815186563900
      57   19  2  -0.35000     -3.575149191810    -19.624978161900    -16.576070913800
      58   20  1   0.70000     -2.639180662960     -2.292623785830     -5.968786052590
      59   20  2  -0.35000     -2.245010736600     -3.146266382290     -5.289430191010
      60   20  2  -0.35000     -3.033350589320     -1.438981189370     -6.648141914170
      61   21  1   0.70000      7.728939809350     17.808211091100     -0.398903615227
      62   21  2  -0.35000      8.578267988490     17.256130946300     -0.964101950179
      63   21  2  -0.35000      6.879611630200     18.360291235900      0.166294719726
      64   22  1   0.70000     -9.358639677560      6.000817547780    -14.781180946300
      65   22  2  -0.35000    -10.515324276900      5.937807637460    -14.842094728600
      66   22  2  -0.35000     -8.201955078230      6.063827458100    -14.720267164000
      67   23  1   0.70000    -21.089538487400    -19.396465577200     16.223791779800
      68   23  2  -0.35000    -20.829480589800    -19.665412382300     15.125776522200
      69   23  2  -0.35000    -21.349596385000    -19.127518772200     17.321807037400
      70   24  1   0.70000     12.641530452400     -6.123579874210      4.643277532870
      71   24  2  -0.35000     13.478817739800     -6.922188316640      4.725585212210
      72   24  2  -0.35000     11.804243165000     -5.324971431790      4.560969853530
      73   25  1   0.70000     19.122715141200     14.981524015500     19.320820878200
      74   25  2  -0.35000     20.249110553700     14.704626576700     19.333516664600
      75   25  2  -0.35000     17.996319728600     15.258421454200     19.308125091800
      76   26  1   0.70000     -8.069633449780    -14.072695239300    -15.508921794900
      77   26  2  -0.35000     -7.853445909200    -14.406523943300    -16.598610440200
      78   26  2  -0.35000     -8.285820990370    -13.738866535300    -14.419233149600
      79   27  1   0.70000      7.377194609770    -16.201622405200    -20.229089174300
      80   27  2  -0.35000      8.183940027060    -16.069646784800    -19.406079899000
      81   27  2  -0.35000      6.570449192470    -16.333598025500    -21.052098449700
      82   28  1   0.70000    -21.243268952000     -6.093206149990    -15.667781108300
      83   28  2  -0.35000    -22.230754067400     -5.899561728520    -16.244820955200
      84   28  2  -0.35000    -20.255783836600     -6.286850571470    -15.090741261400
      85   29  1   0.70000     16.436381182600    -15.585510621000      0.000378729056
      86   29  2  -0.35000     16.707529932600    -14.594189304200      0.538301030373
      87   29  2  -0.35000     16.165232432600    -16.576831937800     -0.537543572260
      88   30  1   0.70000      2.808555983150    -22.239414953000    -12.163721702800
      89   30  2  -0.35000      2.835855421160    -23.163280422654    -11.462774247800
      90   30  2  -0.35000      2.781256545140    -21.315549483300    -12.864669157700
      91   31  1   0.70000      7.319896775530      9.908172983590    -13.329172327800
      92   31  2  -0.35000      7.057917274200      9.698137207750    -14.439510886000
      93   31  2  -0.35000      7.581876276860     10.118208759400    -12.218833769700
      94   32  1   0.70000     13.180009337800    -17.762105131600     12.510750790500
      95   32  2  -0.35000     14.283058015300    -17.410937343100     12.585348373500
      96   32  2  -0.35000     12.076960660300    -18.113272920200     12.436153207400
      97   33  1   0.70000     -6.039011306970     22.304012094700     12.987903878300
      98   33  2  -0.35000     -5.338135386220     22.672607712154     13.835553696600
      99   33  2  -0.35000     -6.739887227730     21.935416477300     12.140254060000
     100   34  1   0.70000     12.984589939600     -6.094132155820    -21.125204781200
     101   34  2  -0.35000     13.515667193000     -5.756084408500    -22.099515138000
     102   34  2  -0.35000     12.453512686100     -6.432179903140    -20.150894424400
     103   35  1   0.70000     -4.032380666710    -10.784003423500     -1.398026546700
     104   35  2  -0.35000     -3.876623776420    -10.302116222200     -0.354415260643
     105   35  2  -0.35000     -4.188137556990    -11.265890624800     -2.441637832760
     106   36  1   0.70000     16.624424620900    -18.335017360200      7.588444457120
     107   36  2  -0.35000     17.171204031500    -18.262566301100      6.567962649260
     108   36  2  -0.35000     16.077645210300    -18.407468419300      8.608926264980
     109   37  1   0.70000     15.869871362000     18.038473928500     -7.561970035210
     110   37  2  -0.35000     16.949467277500     18.461708560500     -7.531227468490
     111   37  2  -0.35000     14.790275446400     17.615239296400     -7.592712601930
     112   38  1   0.70000    -16.789881186800    -12.263638585200    -11.842873380900
     113   38  2  -0.35000    -16.930322485400    -12.662736591800    -10.762782170500
     114   38  2  -0.35000    -16.649439888200    -11.864540578700    -12.922964591300
     115   39  1   0.70000    -13.784887184400    -21.338141954600      4.365557641810
     116   39  2  -0.35000    -14.386108272100    -22.278515999800      4.681516276650
     117   39  2  -0.35000    -13.183666096800    -20.397767909400      4.049599006960
     118   40  1   0.70000     13.791013438200    -11.162117755900    -16.946986225600
     119   40  2  -0.35000     13.104764156700    -12.041673986200    -16.629113984800
     120   40  2  -0.35000     14.477262719700    -10.282561525700    -17.264858466400
     121   41  1   0.70000     19.808983010700      3.344429542540     -7.793122245670
     122   41  2  -0.35000     20.739901041000      3.505985669060     -7.120150300550
     123   41  2  -0.35000     18.878064980500      3.182873416010     -8.466094190780
     124   42  1   0.70000     -2.190493409800      0.679579942399      2.844873683080
     125   42  2  -0.35000     -1.136946864230      0.424843725221      2.431655658340
     126   42  2  -0.35000     -3.244039955370      0.934316159578      3.258091707820
     127   43  1   0.70000      8.228524946930     -9.875762085660      6.082387167480
     128   43  2  -0.35000      7.477749022610    -10.457577141100      5.416484207020
     129   43  2  -0.35000      8.979300871250     -9.293947030240      6.748290127940
     130   44  1   0.70000     19.221004337300      9.657834333970    -17.788972199000
     131   44  2  -0.35000     20.353149772900      9.865692411610    -17.645299890000
     132   44  2  -0.35000     18.088858901800      9.449976256330    -17.932644508000
     133   45  1   0.70000      7.728567424450    -21.243986588700     18.645645955500
     134   45  2  -0.35000      6.573639981620    -21.291041097400     18.743259863200
     135   45  2  -0.35000      8.883494867290    -21.196932079900     18.548032047800
     136   46  1   0.70000     -0.157898282735      5.739287675110     22.426631364700
     137   46  2  -0.35000      0.356138992787      6.355581019220     21.589046626700
     138   46  2  -0.35000     -0.671935558256      5.122994331000     23.264216102754
     139   47  1   0.70000    -12.563288653200      7.901232604390     17.945168302200
     140   47  2  -0.35000    -13.600428716200      7.991472383670     18.456829588600
     141   47  2  -0.35000    -11.526148590200      7.810992825110     17.433507015900
     142   48  1   0.70000     -2.999812756180     21.110690866900    -10.142785882000
     143   48  2  -0.35000     -3.728654246860     21.844534211000     -9.617558285720
     144   48  2  -0.35000     -2.270971265510     20.376847522900    -10.668013478300
     145   49  1   0.70000    -15.666641657500      4.440680205920     -7.151658652450
     146   49  2  -0.35000    -16.799661227700      4.334457209600     -7.376566030120
     147   49  2  -0.35000    -14.533622087300      4.546903202240     -6.926751274770
     148   50  1   0.70000    -16.718865248800     22.028724449700     -4.513545541350
     149   50  2  -0.35000    -17.055694987900     22.283734150400     -5.593876869850
     150   50  2  -0.35000    -16.382035509600     21.773714749000     -3.433214212840
     151   51  1   0.70000      7.361827665250     21.706343907600    -19.378052327300
     152   51  2  -0.35000      8.176322416480     20.882576585300    -19.318004854600
     153   51  2  -0.35000      6.547332914020     22.530111229800    -19.438099800000
     154   52  1   0.70000     16.589372490300     -9.368744569560      6.649277723620
     155   52  2  -0.35000     16.847166914600     -9.357121453520      7.780209612810
     156   52  2  -0.35000     16.331578066000     -9.380367685590      5.518345834440
     157   53  1   0.70000     15.623463812800      6.583467718020    -14.036550627300
     158   53  2  -0.35000     15.994572566100      7.453854555340    -14.707598350400
     159   53  2  -0.35000     15.252355059600      5.713080880710    -13.365502904200
     160   54  1   0.70000     -7.163588339260      9.893530588370    -16.009922574500
     161   54  2  -0.35000     -7.697699909510     10.277384241800    -15.054422075700
     162   54  2  -0.35000     -6.629476769020      9.509676934930    -16.965423073300
     163   55  1   0.70000      1.857571462610     -9.125767947460      3.775500108960
     164   55  2  -0.35000      0.787063350738     -8.791097293180      4.071486486320
     165   55  2  -0.35000      2.928079574480     -9.460438601730      3.479513731600
     166   56  1   0.70000     -8.030890984670     14.193590773400     22.251396927800
     167   56  2  -0.35000     -9.140520167050     14.524660180000     22.320070981600
     168   56  2  -0.35000     -6.921261802280     13.862521366900     22.182722874000
     169   57  1   0.70000    -13.295094971800      2.930147054830    -14.502844551200
     170   57  2  -0.35000    -12.982326254500      3.851656955720    -13.871500562500
     171   57  2  -0.35000    -13.607863689000      2.008637153950    -15.134188540000
     172   58  1   0.70000     -6.405791294860      9.033689129740    -20.695938490400
     173   58  2  -0.35000     -7.509963815980      8.693019945810    -20.594215579000
     174   58  2  -0.35000     -5.301618773740      9.374358313680    -20.797661401900
     175   59  1   0.70000    -17.481550022400    -18.766451684000    -13.099318838100
     176   59  2  -0.35000    -16.400941548600    -18.799959786700    -12.678887472200
     177   59  2  -0.35000    -18.562158496200    -18.732943581300    -13.519750204000
     178   60  1   0.70000    -14.903660458000     11.630471775800      5.062737520960
     179   60  2  -0.35000    -15.172707053500     11.020105891100      4.113702528830
     180   60  2  -0.35000    -14.634613862500     12.240837660400      6.011772513090
     181   61  1   0.70000      0.286713621051    -10.101818962600    -20.139020006600
     182   61  2  -0.35000      0.258053559300     -9.847649601530    -19.007571140400
     183   61  2  -0.35000      0.315373682803    -10.355988323600    -21.270468872700
     184   62  1   0.70000     14.471629846300     16.502448116500    -13.290968459000
     185   62  2  -0.35000     14.839020929900     16.082232376900    -14.307847273700
     186   62  2  -0.35000     14.104238762700     16.922663856100    -12.274089644200
     187   63  1   0.70000    -20.481778112800      5.565752236440     -9.084800557440
     188   63  2  -0.35000    -20.641799975900      6.677611652190     -9.374216595200
     189   63  2  -0.35000    -20.321756249600      4.453892820690     -8.795384519680
     190   64  1   0.70000    -22.400002671500    -21.289097345400     -8.403341422980
     191   64  2  -0.35000    -22.693656045454    -21.848214243300     -9.376355292590
     192   64  2  -0.35000    -22.106349297500    -20.729980447500     -7.430327553380
     193   65  1   0.70000     -6.872884475000      9.556023169270      7.471055753480
     194   65  2  -0.35000     -7.156910633220     10.597802935500      7.047234965860
     195   65  2  -0.35000     -6.588858316780      8.514243402990      7.894876541110
     196   66  1   0.70000     21.896482385800    -20.825826753900    -22.100219897600
     197   66  2  -0.35000     21.480072393100    -20.727372258700    -21.022022591700
     198   66  2  -0.35000     22.312892378600    -20.924281249100    -23.178417203454
     199   67  1   0.70000      8.652067174680    -16.312923681300      6.771831237470
     200   67  2  -0.35000      7.613505043910    -16.663231003300      6.391997746710
     201   67  2  -0.35000      9.690629305450    -15.962616359400      7.151664728240
     202   68  1   0.70000    -14.282691027000    -10.922812223500     -1.194385641490
     203   68  2  -0.35000    -15.293533328300    -10.403341802100     -1.426653424700
     204   68  2  -0.35000    -13.271848725600    -11.442282644900     -0.962117858289
     205   69  1   0.70000    -10.106491363300    -11.316422177100      4.288180268990
     206   69  2  -0.35000    -10.640275206900    -12.263818152400      3.884304453690
     207   69  2  -0.35000     -9.572707519660    -10.369026201700      4.692056084280
     208   70  1   0.70000    -13.584716867700     -4.370731882360     10.214622198500
     209   70  2  -0.35000    -14.652015601200     -4.305376275060     10.664291030000
     210   70  2  -0.35000    -12.517418134200     -4.436087489650      9.764953366990
     211   71  1   0.70000    -20.415530597200     -6.220576148800     -6.585774952520
     212   71  2  -0.35000    -20.160345119100     -6.119534586260     -7.712837938540
     213   71  2  -0.35000    -20.670716075200     -6.321617711330     -5.458711966510
     214   72  1   0.70000    -19.476043521200      3.710313517120     16.254338161300
     215   72  2  -0.35000    -19.940307254000      2.930830918680     16.977156302500
     216   72  2  -0.35000    -19.011779788500      4.489796115570     15.531520020200
     217   73  1   0.70000    -11.424612235000    -20.052045468400      8.895304381790
     218   73  2  -0.35000    -12.413404052900    -20.036303218900      9.501640033540
     219   73  2  -0.35000    -10.435820417200    -20.067787718000      8.288968730040
     220   74  1   0.70000     -4.191594043140      3.604685391430     -6.889083187130
     221   74  2  -0.35000     -3.088621927450      3.949294490670     -6.787608654710
     222   74  2  -0.35000     -5.294566158840      3.260076292200     -6.990557719560
     223   75  1   0.70000     -5.395939556220    -14.860586260100      5.313901018520
     224   75  2  -0.35000     -4.803382577480    -14.523199010000      4.375473573050
     225   75  2  -0.35000     -5.988496534960    -15.197973510200      6.252328463990
     226   76  1   0.70000    -22.149998636500     -5.640417304780     20.164662324200
     227   76  2  -0.35000    -22.727675634654     -4.701142363020     19.804590290300
     228   76  2  -0.35000    -21.572321638300     -6.579692246530     20.524734358100
     229   77  1   0.70000     21.082208141900      7.807611466050    -13.372249251700
     230   77  2  -0.35000     19.998360346600      7.503879022880    -13.091855671800
     231   77  2  -0.35000     22.166055937200      8.111343909220    -13.652642831600
     232   78  1   0.70000      8.315169769930    -15.532334207000     -2.378380504790
     233   78  2  -0.35000      8.498154245460    -16.637363018900     -2.680088984020
     234   78  2  -0.35000      8.132185294390    -14.427305395000     -2.076672025560
     235   79  1   0.70000     17.252073593100     18.902303032200     13.119461340400
     236   79  2  -0.35000     17.289789545400     20.010799438400     13.459186559400
     237   79  2  -0.35000     17.214357640900     17.793806626100     12.779736121300
     238   80  1   0.70000     12.965617293500    -13.724783695900     -7.596982940340
     239   80  2  -0.35000     13.702815968400    -13.000207626200     -8.123412074280
     240   80  2  -0.35000     12.228418618700    -14.449359765600     -7.070553806390
     241   81  1   0.70000     -5.264013316880     10.525681228600     -3.922974782300
     242   81  2  -0.35000     -4.405698867130      9.784751316680     -4.167758709470
     243   81  2  -0.35000     -6.122327766630     11.266611140500     -3.678190855130
     244   82  1   0.70000     16.814182083400     -0.317552487973     -8.711531867920
     245   82  2  -0.35000     17.942623085100     -0.077623341758     -8.832589335530
     246   82  2  -0.35000     15.685741081600     -0.557481634189     -8.590474400310
     247   83  1   0.70000      7.096053415730     15.627037475100      8.258998389590
     248   83  2  -0.35000      6.000560764740     15.444373406600      7.924140673970
     249   83  2  -0.35000      8.191546066720     15.809701543500      8.593856105210
     250   84  1   0.70000     -5.174882271300    -20.546405263200     19.149722742600
     251   84  2  -0.35000     -5.431693887250    -19.814175038500     20.011979486200
     252   84  2  -0.35000     -4.918070655350    -21.278635488000     18.287465999000
     253   85  1   0.70000     10.166593793400      5.653922609820     -5.550811726590
     254   85  2  -0.35000     10.953093297400      4.966009639440     -6.054591713740
     255   85  2  -0.35000      9.380094289450      6.341835580190     -5.047031739440
     256   86  1   0.70000    -11.605776513300    -20.149315633500     -4.103902783730
     257   86  2  -0.35000    -10.955029090800    -20.321980156600     -5.048526917790
     258   86  2  -0.35000    -12.256523935700    -19.976651110400     -3.159278649680
     259   87  1   0.70000    -11.391606178800      2.814657677810     -5.661108350320
     260   87  2  -0.35000    -11.678003292000      1.753542370120     -6.032067913210
     261   87  2  -0.35000    -11.105209065500      3.875772985500     -5.290148787430
     262   88  1   0.70000    -11.269056777500     -5.984094590460     -8.025432336060
     263   88  2  -0.35000    -11.847431192400     -6.228384137130     -9.000832589070
     264   88  2  -0.35000    -10.690682362600     -5.739805043780     -7.050032083050
     265   89  1   0.70000     -4.575613946940    -11.169788245300     20.095937345400
     266   89  2  -0.35000     -3.826934601470    -11.620634191700     20.858706753700
     267   89  2  -0.35000     -5.324293292420    -10.718942298800     19.333167937100
     268   90  1   0.70000     -8.037494821890    -14.517871089500     18.376979394100
     269   90  2  -0.35000     -7.640601879300    -15.325073465100     19.109441213500
     270   90  2  -0.35000     -8.434387764490    -13.710668713900     17.644517574700
     271   91  1   0.70000    -20.239050441000     10.454909602200     -2.001087077700
     272   91  2  -0.35000    -20.126674978900     10.969351900900     -0.967490987928
     273   91  2  -0.35000    -20.351425903100      9.940467303430     -3.034683167470
     274   92  1   0.70000     10.944965430500    -17.831514433200    -11.614467435300
     275   92  2  -0.35000     10.698186701000    -16.799630656700    -12.083419597500
     276   92  2  -0.35000     11.191744160000    -18.863398209700    -11.145515273200
     277   93  1   0.70000     -5.547198504840      8.932089113190    -13.192459398700
     278   93  2  -0.35000     -4.727949197110      9.686581783760    -13.516760773800
     279   93  2  -0.35000     -6.366447812560      8.177596442630    -12.868158023700
     280   94  1   0.70000     -6.650143870920     11.685842451200     -7.672802001980
     281   94  2  -0.35000     -7.433979413870     10.930906758300     -7.271212732720
     282   94  2  -0.35000     -5.866308327960     12.440778144100     -8.074391271240
     283   95  1   0.70000     -8.897058689710      4.916490747150     12.434355585100
     284   95  2  -0.35000     -8.804230469410      4.429953744620     11.385420569600
     285   95  2  -0.35000     -8.989886910010      5.403027749680     13.483290600600
     286   96  1   0.70000     13.157455374400    -16.700693515200    -13.801117022900
     287   96  2  -0.35000     13.643588411600    -16.163464501800    -12.895214347500
     288   96  2  -0.35000     12.671322337200    -17.237922528600    -14.707019698300
     289   97  1   0.70000     -8.021344237710    -20.064684510700     17.212793894100
     290   97  2  -0.35000     -8.534442996830    -19.300873577300     17.919138372100
     291   97  2  -0.35000     -7.508245478590    -20.828495444000     16.506449416200
     292   98  1   0.70000     -9.828456447810     19.839075724200     -7.499564960510
     293   98  2  -0.35000     -9.743838603470     20.667294190200     -6.691793957720
     294   98  2  -0.35000     -9.913074292160     19.010857258100     -8.307335963310
     295   99  1   0.70000     -2.108416713060      1.437919241840    -10.520665984000
     296   99  2  -0.35000     -2.675195399180      0.428306961225    -10.591693892600
     297   99  2  -0.35000     -1.541638026950      2.447531522450    -10.449638075400
     298  100  1   0.70000     -5.494656953350    -20.619408999700      3.321589417050
     299  100  2  -0.35000     -5.062612892440    -21.345353301900      4.116537716970
     300  100  2  -0.35000     -5.926701014260    -19.893464697500      2.526641117130
     301  101  1   0.70000      4.445727323750     21.170780815300      8.544698805800
     302  101  2  -0.35000      4.802874707620     22.046538366200      9.216334464540
     303  101  2  -0.35000      4.088579939890     20.295023264300      7.873063147060
     304  102  1   0.70000    -16.307942585700     19.594651537400      3.784729116860
     305  102  2  -0.35000    -16.091393274100     19.120509613400      4.821018570440
     306  102  2  -0.35000    -16.524491897400     20.068793461300      2.748439663290
     307  103  1   0.70000      2.379957912090     12.724793777800     -1.168526997430
     308  103  2  -0.35000      2.656872241290     11.883691589400     -1.917837055330
     309  103  2  -0.35000      2.103043582890     13.565895966300     -0.419216939522
     310  104  1   0.70000     -4.398892114270     14.279071916900      2.261423203650
     311  104  2  -0.35000     -3.415768309120     14.875257824000      2.415143560070
     312  104  2  -0.35000     -5.382015919410     13.682886009800      2.107702847230
     313  105  1   0.70000     -3.919673504820      2.753990989670     -1.397765377180
     314  105  2  -0.35000     -5.065382424110      2.880925348600     -1.268001203440
     315  105  2  -0.35000     -2.773964585530      2.627056630740     -1.527529550910
     316  106  1   0.70000     11.956047424600    -21.283143394900      6.705935693140
     317  106  2  -0.35000     10.824728398000    -21.218832016700      6.457779881860
     318  106  2  -0.35000     13.087366451200    -21.347454773100      6.954091504410
     319  107  1   0.70000    -12.546885049700     -3.437593735600     14.072258554900
     320  107  2  -0.35000    -12.271972310400     -3.352197949830     12.948545715400
     321  107  2  -0.35000    -12.821797788900     -3.522989521370     15.195971394300
     322  108  1   0.70000     17.193568672200     -8.724431668780     20.361874456400
     323  108  2  -0.35000     18.240886441200     -9.004725404490     19.949368805000
     324  108  2  -0.35000     16.146250903200     -8.444137933060     20.774380107800
     325  109  1   0.70000     22.524668259400    -13.054197280600     -0.178068911309
     326  109  2  -0.35000     23.064945779954    -12.098930054800     -0.553787859559
     327  109  2  -0.35000     21.984390738900    -14.009464506400      0.197650036941
     328  110  1   0.70000      2.581884633700     -6.966966857550    -21.874677947600
     329  110  2  -0.35000      1.972851179760     -7.789495557410    -22.420685996900
     330  110  2  -0.35000      3.190918087640     -6.144438157690    -21.328669898300
     331  111  1   0.70000     17.482942540700     18.721301383300    -11.424572460500
     332  111  2  -0.35000     16.644845922900     17.920038381300    -11.458801992000
     333  111  2  -0.35000     18.321039158400     19.522564385400    -11.390342929100
     334  112  1   0.70000    -18.620111915300    -16.227414252700     12.197152218500
     335  112  2  -0.35000    -18.178507196500    -16.813891518100     11.299026565000
     336  112  2  -0.35000    -19.061716634000    -15.640936987200     13.095277872000
     337  113  1   0.70000      5.789075682150     15.190061425600      1.502726734060
     338  113  2  -0.35000      6.395079812560     14.826190921900      0.582967390279
     339  113  2  -0.35000      5.183071551730     15.553931929300      2.422486077850
     340  114  1   0.70000     13.041479316800    -14.074576232800     11.215423918200