LAMMPS Atom File

         3000 atoms
         2000 bonds
         1000 angles
           0 dihedrals
           0 impropers

           2 atom types
           1 bond types
           1 angle types

         0.0  43.6254267091 xlo xhi
         0.0  43.6254267091 ylo yhi
         0.0  43.6254267091 zlo zhi

Masses

         1   12.01070
         2   15.99990

Atoms

       1    1  1   0.70000    -11.421958665000     17.591788571200    -20.067859727000
       2    1  2  -0.35000    -11.975582033800     17.967157757600    -21.015593413000
       3    1  2  -0.35000    -10.868335296200     17.216419384800    -19.120126041100
       4    2  1   0.70000     21.660313424500     10.424135360600    -18.579610560800
       5    2  2  -0.35000     21.410349225000     11.358370298200    -19.220175140200
       6    2  2  -0.35000     21.910277624080      9.489900423130    -17.939045981300
       7    3  1   0.70000      4.277886130320     18.435022907700     -1.174085812260
       8    3  2  -0.35000      5.314244390700     18.830546720900     -0.834788790028
       9    3  2  -0.35000      3.241527869930     18.039499094500     -1.513382834500
      10    4  1   0.70000     -0.311367185433     13.322806037000    -19.640651019200
      11    4  2  -0.35000     -0.021715870396     13.947192796500    -20.574376508900
      12    4  2  -0.35000     -0.601018500470     12.698419277400    -18.706925529500
      13    5  1   0.70000    -21.636371736400     15.895465996400     -8.834908184670
      14    5  2  -0.35000    -21.772287257900     16.681687613000     -9.676919194530
      15    5  2  -0.35000    -21.500456214900     15.109244379900     -7.992897174810
      16    6  1   0.70000      9.185685449940      0.040868455933     -2.798270541270
      17    6  2  -0.35000      9.325895057590      0.760233798179     -3.697411670520
      18    6  2  -0.35000      9.045475842300     -0.678496886313     -1.899129412030
      19    7  1   0.70000      3.914978582810    -13.900366579700     16.583739043600
      20    7  2  -0.35000      4.071446728430    -13.894153173200     15.434356986600
      21    7  2  -0.35000      3.758510437190    -13.906579986100     17.733121100600
      22    8  1   0.70000     -5.176682308060     21.663060736300     -9.453410422330
      23    8  2  -0.35000     -5.132935215930     20.751655109400     -8.737152106410
      24    8  2  -0.35000     -5.220429400190     22.574466363280    -10.169668738200
      25    9  1   0.70000      6.279287429200    -13.195230791500     18.941759236800
      26    9  2  -0.35000      6.628259002710    -13.105821884300     17.839114739100
      27    9  2  -0.35000      5.930315855680    -13.284639698800     20.044403734400
      28   10  1   0.70000     -9.263079608960     19.087571771300      0.834245770223
      29   10  2  -0.35000     -9.242339628190     18.615042350600     -0.224945336115
      30   10  2  -0.35000     -9.283819589740     19.560101192100      1.893436876560
      31   11  1   0.70000     -8.808753754700     15.074683340700      2.946906490560
      32   11  2  -0.35000     -8.734085732260     13.929120547400      2.780441560580
      33   11  2  -0.35000     -8.883421777140     16.220246134100      3.113371420540
      34   12  1   0.70000     12.780581693000      2.395318873080      1.042384253070
      35   12  2  -0.35000     13.691102505000      3.114030396040      1.044750185290
      36   12  2  -0.35000     11.870060880900      1.676607350110      1.040018320840
      37   13  1   0.70000    -16.544167213400    -10.476381422300     15.764170549700
      38   13  2  -0.35000    -15.417868917600    -10.565501610800     16.027057865600
      39   13  2  -0.35000    -17.670465509200    -10.387261233700     15.501283233700
      40   14  1   0.70000    -21.020277157000     13.325008650100    -14.567729477900
      41   14  2  -0.35000    -20.749275307800     12.681038796000    -15.493721283900
      42   14  2  -0.35000    -21.291279006200     13.968978504300    -13.641737672000
      43   15  1   0.70000     -8.965113521580     11.436996366100     17.980098590100
      44   15  2  -0.35000     -9.985621380110     10.974469222500     17.679711586200
      45   15  2  -0.35000     -7.944605663060     11.899523509700     18.280485594000
      46   16  1   0.70000     -3.634452883850     21.209521271000     13.954573549400
      47   16  2  -0.35000     -2.726726640910     21.931267275480     13.981327480000
      48   16  2  -0.35000     -4.542179126800     20.487775266400     13.927819618900
      49   17  1   0.70000      3.686891830460     15.657633570000    -15.539520292200
      50   17  2  -0.35000      3.595457787790     14.528267274100    -15.290981391000
      51   17  2  -0.35000      3.778325873130     16.786999866000    -15.788059193400
      52   18  1   0.70000     18.100946124200      4.480207534450     19.227828241200
      53   18  2  -0.35000     18.011664376000      4.615796961050     20.376411837200
      54   18  2  -0.35000     18.190227872400      4.344618107850     18.079244645300
      55   19  1   0.70000    -11.800570549600    -18.423546138700      4.043793735980
      56   19  2  -0.35000    -11.020522534300    -19.108042163500      4.562050704900
      57   19  2  -0.35000    -12.580618565000    -17.739050114000      3.525536767050
      58   20  1   0.70000     -0.327919268152    -16.649052269000    -20.486704020400
      59   20  2  -0.35000      0.734770974933    -16.184124980900    -20.498195928500
      60   20  2  -0.35000     -1.390609511240    -17.113979557200    -20.475212112300
      61   21  1   0.70000     -1.069667235720      4.851528750030     13.298474941700
      62   21  2  -0.35000     -0.000326425638      4.514830525090     13.000574728200
      63   21  2  -0.35000     -2.139008045800      5.188226974970     13.596375155200
      64   22  1   0.70000     -4.263742713280     -3.461228990570     -4.195720831010
      65   22  2  -0.35000     -4.973225863010     -4.167612858990     -4.781600930260
      66   22  2  -0.35000     -3.554259563550     -2.754845122160     -3.609840731770
      67   23  1   0.70000      6.311661322590     18.242665016000      3.188825086090
      68   23  2  -0.35000      7.467066277130     18.344563639200      3.204827010690
      69   23  2  -0.35000      5.156256368040     18.140766392800      3.172823161490
      70   24  1   0.70000     -9.834236460830     10.926750025700    -15.823918764200
      71   24  2  -0.35000     -8.689411554390     10.947985137800    -15.638109712700
      72   24  2  -0.35000    -10.979061367300     10.905514913700    -16.009727815700
      73   25  1   0.70000    -20.217047196900    -16.685858428000     16.895879542900
      74   25  2  -0.35000    -19.461648125800    -16.343447950800     17.706883432300
      75   25  2  -0.35000    -20.972446267900    -17.028268905200     16.084875653600
      76   26  1   0.70000     13.102663491100     -5.029250442860     -1.878354627740
      77   26  2  -0.35000     12.567739991700     -4.460403945900     -1.020525674700
      78   26  2  -0.35000     13.637586990500     -5.598096939820     -2.736183580780
      79   27  1   0.70000     18.134602510300     13.878552737100    -21.380817322700
      80   27  2  -0.35000     18.941347927600     14.010528357400    -20.557808047400
      81   27  2  -0.35000     17.327857093000     13.746577116700    -22.203826598080
      82   28  1   0.70000     -6.812151633510    -11.513091872400    -18.026641796500
      83   28  2  -0.35000     -7.500311241030    -11.917693597100    -18.868267484700
      84   28  2  -0.35000     -6.123992025990    -11.108490147700    -17.185016108400
      85   29  1   0.70000      8.274110603070    -17.482460371300    -19.022696935800
      86   29  2  -0.35000      8.224813574440    -16.485577945000    -18.431600301300
      87   29  2  -0.35000      8.323407631700    -18.479342797500    -19.613793570200
      88   30  1   0.70000    -20.970464552300     -5.338178750680    -16.781994420400
      89   30  2  -0.35000    -20.749015513900     -6.188996878570    -16.025245560700
      90   30  2  -0.35000    -21.191913590700     -4.487360622790    -17.538743280100
      91   31  1   0.70000     11.504615189300    -20.801543145500     -1.402501794160
      92   31  2  -0.35000     11.252657218200    -20.058855843000     -2.257213881070
      93   31  2  -0.35000     11.756573160300    -21.544230448000     -0.547789707251
      94   32  1   0.70000      7.909753719400     20.833545369600    -10.291210314500
      95   32  2  -0.35000      7.157968417810     20.919910963100    -11.170391663600
      96   32  2  -0.35000      8.661539020990     20.747179776100     -9.412028965470
      97   33  1   0.70000      3.254934649070      7.859047042360    -18.011851418500
      98   33  2  -0.35000      2.818632113110      8.188522980720    -19.034928005600
      99   33  2  -0.35000      3.691237185020      7.529571104000    -16.988774831300
     100   34  1   0.70000     16.587147401500    -18.331834810200     15.003778305300
     101   34  2  -0.35000     16.822742440900    -18.853971570900     13.995082027600
     102   34  2  -0.35000     16.351552362100    -17.809698049600     16.012474583000
     103   35  1   0.70000     -5.370007699510    -20.307529916000     10.300255302400
     104   35  2  -0.35000     -5.011651418280    -19.696159687600      9.381883253830
     105   35  2  -0.35000     -5.728363980740    -20.918900144400     11.218627350900
     106   36  1   0.70000     11.940493054300     -1.254051433050    -20.754713401300
     107   36  2  -0.35000     11.827861681700     -2.372744054440    -20.469334718300
     108   36  2  -0.35000     12.053124426900     -0.135358811658    -21.040092084400
     109   37  1   0.70000     -9.481085857130    -14.588936522900      0.278494132350
     110   37  2  -0.35000    -10.027678882900    -14.225251436200     -0.677836993312
     111   37  2  -0.35000     -8.934492831380    -14.952621609600      1.234825258010
     112   38  1   0.70000     16.450529360800    -19.888385685300      6.394952551650
     113   38  2  -0.35000     17.528077061200    -19.471948124000      6.289735105590
     114   38  2  -0.35000     15.372981660400    -20.304823246500      6.500169997720
     115   39  1   0.70000     15.370765342000     14.882259380700     -6.305786031240
     116   39  2  -0.35000     15.646634165100     14.381482300500     -5.296470070630
     117   39  2  -0.35000     15.094896518900     15.383036461000     -7.315101991840
     118   40  1   0.70000    -13.717785184400     -9.770221602060    -10.968176384500
     119   40  2  -0.35000    -13.921779994100    -10.583009331000    -11.770275022600
     120   40  2  -0.35000    -13.513790374600     -8.957433873090    -10.166077746400
     121   41  1   0.70000    -17.109159308200    -20.396864044000      4.508261324520
     122   41  2  -0.35000    -17.163660268800    -20.910537071100      3.469622953170
     123   41  2  -0.35000    -17.054658347600    -19.883191016800      5.546899695880
     124   42  1   0.70000     11.944846695500     -9.855107009590    -10.981369286400
     125   42  2  -0.35000     11.115238437000     -9.404269560820    -10.307503029500
     126   42  2  -0.35000     12.774454954000    -10.305944458400    -11.655235543300
     127   43  1   0.70000     21.296191145600      6.915471578560     -9.097161066060
     128   43  2  -0.35000     22.292840777580      7.181004432680     -8.566329817520
     129   43  2  -0.35000     20.299541513600      6.649938724440     -9.627992314600
     130   44  1   0.70000     -4.450200923070      0.680883175904     -2.157414881170
     131   44  2  -0.35000     -3.990181304950      0.349815818103     -1.145300087510
     132   44  2  -0.35000     -4.910220541190      1.011950533710     -3.169529674830
     133   45  1   0.70000      9.796644980970     -4.896083079650      8.703305088970
     134   45  2  -0.35000     10.740775660700     -5.531313215050      8.478138629150
     135   45  2  -0.35000      8.852514301220     -4.260852944240      8.928471548780
     136   46  1   0.70000     15.342525532000      7.432004055740    -16.343147142100
     137   46  2  -0.35000     16.437872571800      7.351307519910    -16.716380221500
     138   46  2  -0.35000     14.247178492300      7.512700591570    -15.969914062600
     139   47  1   0.70000      5.287721454220    -16.230974870300     19.117794417800
     140   47  2  -0.35000      5.233371383880    -16.358216772400     17.966075889600
     141   47  2  -0.35000      5.342071524550    -16.103732968200     20.269512946000
     142   48  1   0.70000      3.187876422330      5.296322404240     20.802994292200
     143   48  2  -0.35000      3.718964735950      6.327597568270     20.798902935600
     144   48  2  -0.35000      2.656788108710      4.265047240210     20.807085648800
     145   49  1   0.70000    -13.768423999300      9.356320932330     12.858841480500
     146   49  2  -0.35000    -13.499923620500     10.324600658500     12.279236512900
     147   49  2  -0.35000    -14.036924378200      8.388041206170     13.438446448100
     148   50  1   0.70000     -1.953457414190     17.610396191500     -7.014738300680
     149   50  2  -0.35000     -3.059963631820     17.620309344400     -6.666678363670
     150   50  2  -0.35000     -0.846951196561     17.600483038600     -7.362798237690
     151   51  1   0.70000    -14.104976892600      9.347144655780     -9.687556791780
     152   51  2  -0.35000    -13.836203734300      9.993151481030    -10.612779019700
     153   51  2  -0.35000    -14.373750050900      8.701137830530     -8.762334563830
     154   52  1   0.70000     21.304912564600     16.735296891000     -4.238939030890
     155   52  2  -0.35000     20.592211788000     16.800484596200     -3.326027115040
     156   52  2  -0.35000     22.017613341180     16.670109185900     -5.151850946730
     157   53  1   0.70000      5.203448908330     21.364315655100     20.908347672000
     158   53  2  -0.35000      5.396063539730     20.973553858600     19.833264037100
     159   53  2  -0.35000      5.010834276930     21.755077451700     21.983431306980
     160   54  1   0.70000     19.458482513300     -9.926046249180     10.191126317700
     161   54  2  -0.35000     20.486624508700    -10.324992063700      9.831451083240
     162   54  2  -0.35000     18.430340517800     -9.527100434680     10.550801552100
     163   55  1   0.70000     -6.792722442440      8.538668306160    -17.667922832700
     164   55  2  -0.35000     -7.305752411010      9.474037687300    -18.123427357500
     165   55  2  -0.35000     -6.279692473870      7.603298925020    -17.212418307800
     166   56  1   0.70000      4.201121107660    -10.369077720100      0.158017604829
     167   56  2  -0.35000      3.517721206140    -10.175408884900     -0.759073970130
     168   56  2  -0.35000      4.884521009180    -10.562746555400      1.075109179790
     169   57  1   0.70000     -9.817724661090     13.306010874000    -20.670034500100
     170   57  2  -0.35000     -9.596076791500     14.050273463800    -21.531745251600
     171   57  2  -0.35000    -10.039372530700     12.561748284200    -19.808323748500
     172   58  1   0.70000    -13.342335622900      0.029625173331    -10.696457248600
     173   58  2  -0.35000    -12.874119636600      1.023679892430    -11.068248864400
     174   58  2  -0.35000    -13.810551609300     -0.964429545770    -10.324665632800
     175   59  1   0.70000     -4.470420911720      6.039453340950    -20.503885236900
     176   59  2  -0.35000     -3.338051289900      5.787786037910    -20.505500216700
     177   59  2  -0.35000     -5.602790533540      6.291120643990    -20.502270257100
     178   60  1   0.70000    -20.800315121900    -20.697330556600    -15.434169990300
     179   60  2  -0.35000    -21.476376642200    -19.780612674200    -15.653644692100
     180   60  2  -0.35000    -20.124253601500    -21.614048439100    -15.214695288500
     181   61  1   0.70000    -17.687217110500      9.747263694780      6.200021115370
     182   61  2  -0.35000    -17.515760213500      8.681161193500      6.623846538430
     183   61  2  -0.35000    -17.858674007600     10.813366196100      5.776195692310
     184   62  1   0.70000      1.065587666890     -6.092419811020     20.492982142000
     185   62  2  -0.35000      2.020885042280     -6.747747238630     20.552588242300
     186   62  2  -0.35000      0.110290291494     -5.437092383410     20.433376041700
     187   63  1   0.70000     12.176443725400     14.999968328700    -17.892374685200
     188   63  2  -0.35000     12.187740527500     14.437060760900    -18.906577550700
     189   63  2  -0.35000     12.165146923300     15.562875896500    -16.878171819600
     190   64  1   0.70000    -20.518877749600      9.045652414360     -6.539035316410
     191   64  2  -0.35000    -19.743440797800      9.605400026530     -7.195526096560
     192   64  2  -0.35000    -21.294314701500      8.485904802200     -5.882544536270
     193   65  1   0.70000    -19.487956000200    -16.702098340700    -10.180281384400
     194   65  2  -0.35000    -19.193141419200    -16.724818715600     -9.058600437150
     195   65  2  -0.35000    -19.782770581200    -16.679377965900    -11.301962331600
     196   66  1   0.70000     -3.504550531910     11.778814166200      9.498633181390
     197   66  2  -0.35000     -3.362960653760     11.339776104900     10.562962964500
     198   66  2  -0.35000     -3.646140410070     12.217852227400      8.434303398280
     199   67  1   0.70000     21.562118274300    -17.401660178600    -21.125263803400
     200   67  2  -0.35000     22.666626853680    -17.456420947500    -21.475495235900
     201   67  2  -0.35000     20.457609695000    -17.346899409800    -20.775032370800
     202   68  1   0.70000      7.070870979180    -14.517717560900      1.236510556000
     203   68  2  -0.35000      6.283021948340    -14.679512100000      0.400617960201
     204   68  2  -0.35000      7.858720010020    -14.355923021800      2.072403151800
     205   69  1   0.70000    -20.440158080000     -9.459776467160     -4.453879696610
     206   69  2  -0.35000    -19.762077379000     -9.986279015600     -5.234008935600
     207   69  2  -0.35000    -21.118238780900     -8.933273918720     -3.673750457630
     208   70  1   0.70000     -6.760173533270     -9.741770163030      6.830270927590
     209   70  2  -0.35000     -7.730000888630    -10.311049259900      6.545742878680
     210   70  2  -0.35000     -5.790346177900     -9.172491066120      7.114798976500
     211   71  1   0.70000    -13.091090206400     -3.637361911370      6.399087949840
     212   71  2  -0.35000    -14.106174782300     -4.137077734340      6.143182889240
     213   71  2  -0.35000    -12.076005630500     -3.137646088400      6.654993010440
     214   72  1   0.70000    -19.106271534300     -6.578065374870     -5.784645183140
     215   72  2  -0.35000    -18.536686331500     -7.459798823040     -5.290966316750
     216   72  2  -0.35000    -19.675856737100     -5.696331926690     -6.278324049520
     217   73  1   0.70000    -16.172497112000     -1.901136898350     18.715958574800
     218   73  2  -0.35000    -16.693346395700     -2.779949264960     19.265508252200
     219   73  2  -0.35000    -15.651647828300     -1.022324531750     18.166408897300
     220   74  1   0.70000     -4.924524231230    -16.635107291300      9.517471855640
     221   74  2  -0.35000     -4.124495929380    -16.672606008000     10.356607460000
     222   74  2  -0.35000     -5.724552533090    -16.597608574500      8.678336251300
     223   75  1   0.70000    -11.008760882800      5.490032333050     -5.992036714130
     224   75  2  -0.35000    -10.027103497300      5.070298071900     -6.445657621460
     225   75  2  -0.35000    -11.990418268300      5.909766594190     -5.538415806810
     226   76  1   0.70000     -4.219222712220    -13.796480474100      5.502217592640
     227   76  2  -0.35000     -4.869217980760    -13.178746404900      4.766343438540
     228   76  2  -0.35000     -3.569227443670    -14.414214543200      6.238091746740
     229   77  1   0.70000     19.123709130500     -6.405366845270     21.159084634400
     230   77  2  -0.35000     20.052270833300     -6.936473373860     20.710421041700
     231   77  2  -0.35000     18.195147427800     -5.874260316670     21.607748227100
     232   78  1   0.70000     20.221507929400      4.255787539050    -20.390996005800
     233   78  2  -0.35000     19.960601757500      5.033948138380    -19.571243573000
     234   78  2  -0.35000     20.482414101400      3.477626939730    -21.210748438600
     235   79  1   0.70000      8.995383458440     -7.193426865430      1.282853674420
     236   79  2  -0.35000     10.075237377200     -7.367981109470      0.896788485588
     237   79  2  -0.35000      7.915529539690     -7.018872621380      1.668918863250
     238   80  1   0.70000     15.857273796100     15.654661111700      5.519253576460
     239   80  2  -0.35000     15.829894425700     16.786508095200      5.771786299100
     240   80  2  -0.35000     15.884653166400     14.522814128100      5.266720853810
     241   81  1   0.70000     13.089337423300     13.262551223600     12.515857969400
     242   81  2  -0.35000     13.218361323200     13.697106440100     11.448096480600
     243   81  2  -0.35000     12.960313523400     12.827996007100     13.583619458300
     244   82  1   0.70000    -14.834892331600     11.936229540400    -17.299695899900
     245   82  2  -0.35000    -14.168038691000     12.745331020500    -17.795942831200
     246   82  2  -0.35000    -15.501745972200     11.127128060300    -16.803448968500
     247   83  1   0.70000     -6.813206701030     -7.992586554590     -6.197256033050
     248   83  2  -0.35000     -6.970906105580     -8.529642459890     -7.213278597950
     249   83  2  -0.35000     -6.655507296490     -7.455530649290     -5.181233468150
     250   84  1   0.70000    -18.004219875800     -5.289756101450     11.629858969800
     251   84  2  -0.35000    -18.547925826000     -5.628574941780     12.596908934000
     252   84  2  -0.35000    -17.460513925600     -4.950937261130     10.662809005700
     253   85  1   0.70000     21.686685907500    -14.824043470900     18.877238758800
     254   85  2  -0.35000     21.339288474000    -14.732496770100     17.774272655600
     255   85  2  -0.35000     22.034083340980    -14.915590171700     19.980204862000
     256   86  1   0.70000      5.348404906470      8.354337427230      7.058945469090
     257   86  2  -0.35000      4.382347965300      7.908369130090      7.520947919700
     258   86  2  -0.35000      6.314461847640      8.800305724370      6.596943018480
     259   87  1   0.70000     16.896134502500      2.169674397430     20.861206494500
     260   87  2  -0.35000     16.342000472900      2.399838754110     21.853960162880
     261   87  2  -0.35000     17.450268532200      1.939510040760     19.868452826100
     262   88  1   0.70000    -14.545604122700      6.842958406310      7.181617656950
     263   88  2  -0.35000    -15.239660035600      7.179090886580      6.315072017360
     264   88  2  -0.35000    -13.851548209800      6.506825926030      8.048163296540
     265   89  1   0.70000     10.403582908500     10.830193177800     18.264737500300
     266   89  2  -0.35000     10.184267704900     11.879886840800     17.822420809000
     267   89  2  -0.35000     10.622898112100      9.780499514820     18.707054191500
     268   90  1   0.70000      7.234351008850     20.423751257300     10.399713989100
     269   90  2  -0.35000      7.881412487360     20.635679024400     11.338861509200
     270   90  2  -0.35000      6.587289530330     20.211823490100      9.460566468970
     271   91  1   0.70000     -3.560749400150     -5.034821432120     -0.579880903080
     272   91  2  -0.35000     -2.832477837890     -5.936575663260     -0.534495462338
     273   91  2  -0.35000     -4.289020962410     -4.133067200990     -0.625266343822
     274   92  1   0.70000    -13.660080603700      2.972808923140     -7.315364772390
     275   92  2  -0.35000    -14.758535382800      3.301590000340     -7.491149019700
     276   92  2  -0.35000    -12.561625824600      2.644027845950     -7.139580525070
     277   93  1   0.70000     -0.968139650803    -12.477287241500     15.805346279100
     278   93  2  -0.35000     -0.101783469540    -12.320051890400     15.050161525800
     279   93  2  -0.35000     -1.834495832070    -12.634522592500     16.560531032300
     280   94  1   0.70000     -8.683887605200    -15.525443608300     16.388792777500
     281   94  2  -0.35000     -8.342565696310    -15.220809936600     15.322820132200
     282   94  2  -0.35000     -9.025209514080    -15.830077280100     17.454765422800
     283   95  1   0.70000     21.404066477800     12.317566849900     -4.375281972850
     284   95  2  -0.35000     21.496894698100     11.831029847300     -5.424216988320
     285   95  2  -0.35000     21.311238257500     12.804103852400     -3.326346957380
     286   96  1   0.70000      7.302473411170    -18.350112577300    -14.460788497500
     287   96  2  -0.35000      7.695300492640    -18.979565453900    -15.352458817900
     288   96  2  -0.35000      6.909646329710    -17.720659700700    -13.569118177100
     289   97  1   0.70000     -3.698825026640      7.393281209310    -12.822138340400
     290   97  2  -0.35000     -3.452550415690      6.259747015130    -12.829141669800
     291   97  2  -0.35000     -3.945099637600      8.526815403500    -12.815135011000
     292   98  1   0.70000    -10.429416296300      5.877140875540    -17.400043973100
     293   98  2  -0.35000    -10.582060948100      6.712749873350    -18.190016892300
     294   98  2  -0.35000    -10.276771644400      5.041531877740    -16.610071053900
     295   99  1   0.70000      6.574617700710     -5.005156193940    -11.457745384600
     296   99  2  -0.35000      5.926985188670     -5.909671320820    -11.786416214700
     297   99  2  -0.35000      7.222250212760     -4.100641067060    -11.129074554400
     298  100  1   0.70000     10.705657094200      1.608006363800      4.914265772630
     299  100  2  -0.35000      9.811276430830      1.579021296400      4.176130896850
     300  100  2  -0.35000     11.600037757600      1.636991431210      5.652400648410
     301  101  1   0.70000     16.616143396100     -8.854834529380     -4.212441619470
     302  101  2  -0.35000     15.796427390900     -8.577336640970     -3.440003536110
     303  101  2  -0.35000     17.435859401400     -9.132332417790     -4.984879702840
     304  102  1   0.70000     19.732308456600     10.762405933900      5.125181136330
     305  102  2  -0.35000     19.664936530200     11.412878846900      6.083276127960
     306  102  2  -0.35000     19.799680382900     10.111933020900      4.167086144690
     307  103  1   0.70000    -19.830112363600     18.573257525800     -2.806925930150
     308  103  2  -0.35000    -20.739840906400     18.426389652700     -2.102352437620
     309  103  2  -0.35000    -18.920383820900     18.720125398900     -3.511499422670
     310  104  1   0.70000      7.317306828240      1.132030780760      6.018908435010
     311  104  2  -0.35000      6.977718382630      1.921526655650      5.239821821630
     312  104  2  -0.35000      7.656895273850      0.342534905866      6.797995048380
     313  105  1   0.70000     19.333536915700     -1.951145731520    -19.897083321500
     314  105  2  -0.35000     19.440836635100     -2.584803016060    -20.862777484300
     315  105  2  -0.35000     19.226237196400     -1.317488446980    -18.931389158700
     316  106  1   0.70000    -14.812866866300     -1.237178131180    -16.953299316600
     317  106  2  -0.35000    -15.951407689900     -1.227372223340    -16.731424042600
     318  106  2  -0.35000    -13.674326042700     -1.246984039020    -17.175174590600
     319  107  1   0.70000     -6.956043422810    -14.738714893700    -21.389810763900
     320  107  2  -0.35000     -7.340660808350    -14.524401296900    -20.316619658400
     321  107  2  -0.35000     -6.571426037270    -14.953028490400    -22.463001869480
     322  108  1   0.70000     18.740691695200     -2.765706684260     -3.704154984690
     323  108  2  -0.35000     19.215439866200     -3.627167702590     -3.089257360690
     324  108  2  -0.35000     18.265943524200     -1.904245665920     -4.319052608700
     325  109  1   0.70000     20.131024184400    -13.759814215100     12.310004962700
     326  109  2  -0.35000     20.246624869300    -13.237950296700     13.339516756000
     327  109  2  -0.35000     20.015423499400    -14.281678133400     11.280493169500
     328  110  1   0.70000     -3.591835660470    -16.761671299800    -17.604341226200
     329  110  2  -0.35000     -4.200869114410    -17.584199999600    -18.150349275500
     330  110  2  -0.35000     -2.982802206530    -15.939142599900    -17.058333176900
     331  111  1   0.70000    -14.359885300500     -6.908231487840     16.678620957600
     332  111  2  -0.35000    -13.302969637400     -6.626714713310     17.064985535000
     333  111  2  -0.35000    -15.416800963700     -7.189748262380     16.292256380200
     334  112  1   0.70000      5.926193258640     14.883310731600      1.734896180280
     335  112  2  -0.35000      6.592589600720     15.674719041700      1.210311771460
     336  112  2  -0.35000      5.259796916560     14.091902421500      2.259480589090
     337  113  1   0.70000     12.477038373800    -13.944831458200     10.308491280400
     338  113  2  -0.35000     12.468122847100    -14.751257072500      9.474705791220
     339  113  2  -0.35000     12.485953900600    -13.138405843900     11.142276769500
     340  114  1   0.70000      6.099307540230     -5.185465163150     20.377585589700