LAMMPS Atom File

         3000 atoms
         2000 bonds
         1000 angles
           0 dihedrals
           0 impropers

           2 atom types
           1 bond types
           1 angle types

         0.0  46.9940663347 xlo xhi
         0.0  46.9940663347 ylo yhi
         0.0  46.9940663347 zlo zhi

Masses

         1   12.01070
         2   15.99990

Atoms

       1    1  1   0.70000    -13.212822050400     20.661523355900    -23.477325498000
       2    1  2  -0.35000    -13.766445419100     21.036892542300    -24.425059183942
       3    1  2  -0.35000    -12.659198681600     20.286154169500    -22.529591812100
       4    2  1   0.70000     21.619705551300      7.090604034080    -22.526937191500
       5    2  2  -0.35000     21.369741351800      8.024838971590    -23.167501771000
       6    2  2  -0.35000     21.869669750900      6.156369096560    -21.886372612000
       7    3  1   0.70000      0.360199001499     19.964188974900      1.690372618980
       8    3  2  -0.35000     -0.677752519607     19.789037130300      2.177792839290
       9    3  2  -0.35000      1.398150522600     20.139340819500      1.202952398660
      10    4  1   0.70000     -1.282546766580     14.198533876100    -22.199707157800
      11    4  2  -0.35000     -1.296448730590     13.437727430900    -21.324161448900
      12    4  2  -0.35000     -1.268644802560     14.959340321300    -23.075252866600
      13    5  1   0.70000    -16.231857567600     15.593433383400    -13.028108977700
      14    5  2  -0.35000    -16.061839730700     14.446856852500    -13.073454252800
      15    5  2  -0.35000    -16.401875404600     16.740009914300    -12.982763702700
      16    6  1   0.70000      8.057986315180     -0.546434510990     -4.842021637920
      17    6  2  -0.35000      7.228456566510      0.264261189625     -4.826119528530
      18    6  2  -0.35000      8.887516063840     -1.357130211610     -4.857923747310
      19    7  1   0.70000      3.195547358540    -15.531814222800     19.976294261300
      20    7  2  -0.35000      4.017510098210    -14.779963480100     19.652723998000
      21    7  2  -0.35000      2.373584618860    -16.283664965500     20.299864524600
      22    8  1   0.70000     -5.517066585500     22.646345745400     -8.541441678700
      23    8  2  -0.35000     -5.849594438570     21.777069577000     -9.233817422040
      24    8  2  -0.35000     -5.184538732430     23.515621913742     -7.849065935350
      25    9  1   0.70000     -4.151529522910      4.423654823350      8.682675047350
      26    9  2  -0.35000     -3.146871938260      4.150843223230      8.170974970690
      27    9  2  -0.35000     -5.156187107560      4.696466423470      9.194375124000
      28   10  1   0.70000      9.503111773460     -8.592715651340     17.723134779700
      29   10  2  -0.35000      9.614145728810     -9.295476118100     16.806947469600
      30   10  2  -0.35000      9.392077818120     -7.889955184580     18.639322089800
      31   11  1   0.70000    -10.274375362300     21.056610714600      4.757654332420
      32   11  2  -0.35000    -10.094476187800     20.174046621200      4.026684491760
      33   11  2  -0.35000    -10.454274536900     21.939174808100      5.488624173070
      34   12  1   0.70000     -8.811175307950     16.369708784300      6.557564265150
      35   12  2  -0.35000     -9.071502766020     16.161153100900      7.668570179400
      36   12  2  -0.35000     -8.550847849890     16.578264467700      5.446558350900
      37   13  1   0.70000     13.585766812500     -1.190524617430      5.962490896350
      38   13  2  -0.35000     13.820516607200     -1.200746033390      7.098443385020
      39   13  2  -0.35000     13.351017017700     -1.180303201470      4.826538407670
      40   14  1   0.70000    -18.461489344500    -12.018301891900     12.966687531600
      41   14  2  -0.35000    -18.208359072900    -13.121360205600     12.712153796900
      42   14  2  -0.35000    -18.714619616100    -10.915243578200     13.221221266300
      43   15  1   0.70000     17.576639499200     13.442170161000    -15.654278402100
      44   15  2  -0.35000     17.116629756700     13.350232758000    -16.715192418800
      45   15  2  -0.35000     18.036649241700     13.534107564000    -14.593364385500
      46   16  1   0.70000     -9.347832321730     17.235951832300     20.048445494400
      47   16  2  -0.35000    -10.204611519400     17.664995011800     19.394647852500
      48   16  2  -0.35000     -8.491053124040     16.806908652700     20.702243136200
      49   17  1   0.70000      0.213123390345     15.112213736500     15.965905991900
      50   17  2  -0.35000      0.759132102133     16.034294065500     15.521786240700
      51   17  2  -0.35000     -0.332885321442     14.190133407500     16.410025743200
      52   18  1   0.70000     20.229891145600      6.337537200550     20.606140523900
      53   18  2  -0.35000     20.885962775900      6.040758354570     19.696694355900
      54   18  2  -0.35000     19.573819515200      6.634316046520     21.515586691900
      55   19  1   0.70000    -12.570295367700    -23.024749697000      7.601156255910
      56   19  2  -0.35000    -13.397219457000    -23.821582016743      7.765030612470
      57   19  2  -0.35000    -11.743371278300    -22.227917377300      7.437281899340
      58   20  1   0.70000     -7.008856659360    -19.041736033700    -22.015102893100
      59   20  2  -0.35000     -6.493853403580    -18.404069106600    -22.835927196300
      60   20  2  -0.35000     -7.523859915140    -19.679402960800    -21.194278590000
      61   21  1   0.70000     -0.792920923934      2.655466075120     17.289251254100
      62   21  2  -0.35000     -1.606548533400      2.314701347170     18.042570252400
      63   21  2  -0.35000      0.020706685531      2.996230803070     16.535932255700
      64   22  1   0.70000      0.172599493177     -2.383758248930     -4.032915275770
      65   22  2  -0.35000     -0.010193628999     -2.955119859480     -3.040074611580
      66   22  2  -0.35000      0.355392615353     -1.812396638380     -5.025755939970
      67   23  1   0.70000      3.966572229280     20.059832541400      2.910625925180
      68   23  2  -0.35000      3.370921135430     19.564363437600      3.773939391800
      69   23  2  -0.35000      4.562223323120     20.555301645100      2.047312458560
      70   24  1   0.70000    -10.266650275200      8.992958747740    -20.282591219800
      71   24  2  -0.35000     -9.709658789100      7.990946988310    -20.105580151300
      72   24  2  -0.35000    -10.823641761300      9.994970507170    -20.459602288400
      73   25  1   0.70000    -21.915163845500    -19.680837110200     18.649617887200
      74   25  2  -0.35000    -21.119606194900    -19.523146266900     17.820267766600
      75   25  2  -0.35000    -22.710721496000    -19.838527953600     19.478968007800
      76   26  1   0.70000     14.890701476200     -7.465605166720      0.988211702682
      77   26  2  -0.35000     14.644978684500     -7.705154914350      2.096289420200
      78   26  2  -0.35000     15.136424267900     -7.226055419090     -0.119866014831
      79   27  1   0.70000     22.688403726900     15.091787252900    -23.396370455100
      80   27  2  -0.35000     23.068042947400     15.597859506600    -22.424071665500
      81   27  2  -0.35000     22.308764506400     14.585714999300    -24.368669244842
      82   28  1   0.70000     -5.880232439200     -6.828146330810    -18.975194699700
      83   28  2  -0.35000     -6.724478517640     -7.364097775610    -18.387313242400
      84   28  2  -0.35000     -5.035986360760     -6.292194886000    -19.563076157100
      85   29  1   0.70000      3.972515487430    -12.757780723000    -23.162624897300
      86   29  2  -0.35000      3.923218458800    -11.760898296800    -22.571528262900
      87   29  2  -0.35000      4.021812516070    -13.754663149300    -23.753721531742
      88   30  1   0.70000    -22.202664763600     -9.651228643100    -16.778036344300
      89   30  2  -0.35000    -22.175365325600    -10.575094112800    -16.077088889400
      90   30  2  -0.35000    -22.229964201700     -8.727363173410    -17.478983799300
      91   31  1   0.70000     14.920565908200    -17.627699933000      2.971837407730
      92   31  2  -0.35000     15.792917932100    -16.940694918900      3.307435466550
      93   31  2  -0.35000     14.048213884400    -18.314704947100      2.636239348900
      94   32  1   0.70000      8.024542715900    -22.021959179100    -12.496889097800
      95   32  2  -0.35000      8.954460530340    -21.458429748800    -12.900977503400
      96   32  2  -0.35000      7.094624901460    -22.585488609400    -12.092800692200
      97   33  1   0.70000      6.068465453990     12.685568157100    -12.059279542900
      98   33  2  -0.35000      5.069846292360     12.561472308200    -12.636306396900
      99   33  2  -0.35000      7.067084615630     12.809664006000    -11.482252688800
     100   34  1   0.70000     14.939635220100    -20.458997417500     14.216343698800
     101   34  2  -0.35000     14.737847335300    -19.490816854900     13.610119278700
     102   34  2  -0.35000     15.141423105000    -21.427177980200     14.822568119000
     103   35  1   0.70000     -4.189217011100    -21.163853244600      9.068898109390
     104   35  2  -0.35000     -3.531935128220    -20.979663430700     10.006797165200
     105   35  2  -0.35000     -4.846498893970    -21.348043058500      8.130999053570
     106   36  1   0.70000     12.881942855300     -5.233857310240    -23.372122847700
     107   36  2  -0.35000     12.981736444200     -6.316931579570    -22.968896649700
     108   36  2  -0.35000     12.782149266500     -4.150783040900    -23.775349045642
     109   37  1   0.70000     -7.101132847070    -16.222269101100     -6.275439482680
     110   37  2  -0.35000     -8.004831721090    -15.495630171600     -6.245038640880
     111   37  2  -0.35000     -6.197433973040    -16.948908030600     -6.305840324490
     112   38  1   0.70000     16.891568870600    -20.856743912400     11.093263186400
     113   38  2  -0.35000     16.751127572000    -21.255841919000     12.173354396800
     114   38  2  -0.35000     17.032010169200    -20.457645905800     10.013171976000
     115   39  1   0.70000     11.586372584200     16.081707979800     -7.521292474690
     116   39  2  -0.35000     11.802734616700     17.214266564100     -7.394412515810
     117   39  2  -0.35000     11.370010551600     14.949149395500     -7.648172433570
     118   40  1   0.70000    -19.602122120100    -13.516125520300    -12.728969020000
     119   40  2  -0.35000    -19.134647318000    -14.040345232400    -13.652148852400
     120   40  2  -0.35000    -20.069596922200    -12.991905808100    -11.805789187700
     121   41  1   0.70000    -19.586457707200    -23.185327649100      6.999743800490
     122   41  2  -0.35000    -20.314290670700    -23.932773345042      6.492610574580
     123   41  2  -0.35000    -18.858624743600    -22.437881953200      7.506877026390
     124   42  1   0.70000     15.231680106300     -9.441288435170    -12.421636297300
     125   42  2  -0.35000     14.087048228100     -9.301186323280    -12.295980968900
     126   42  2  -0.35000     16.376311984600     -9.581390547060    -12.547291625700
     127   43  1   0.70000     20.144129972200      6.997144234910     -9.768627354920
     128   43  2  -0.35000     19.952894683000      7.376276555550    -10.848112300400
     129   43  2  -0.35000     20.335365261500      6.618011914270     -8.689142409410
     130   44  1   0.70000     -1.543957323320     -2.408293557490     -0.719057213960
     131   44  2  -0.35000     -2.524241244650     -2.388642467800     -1.338942097040
     132   44  2  -0.35000     -0.563673401999     -2.427944647180     -0.099172330882
     133   45  1   0.70000      6.958552523880     -9.132474144050      6.599571534610
     134   45  2  -0.35000      7.327881717320     -8.036353872640      6.511729076330
     135   45  2  -0.35000      6.589223330440    -10.228594415500      6.687413992900
     136   46  1   0.70000     17.993976286800      9.197672071350    -19.835799836200
     137   46  2  -0.35000     17.019495959900      9.153249812910    -19.208093889500
     138   46  2  -0.35000     18.968456613700      9.242094329800    -20.463505782800
     139   47  1   0.70000      2.547006178440      7.148336660360    -21.448790231100
     140   47  2  -0.35000      2.492656108100      7.021094758230    -22.600508759300
     141   47  2  -0.35000      2.601356248780      7.275578562490    -20.297071702900
     142   48  1   0.70000    -19.567672921100     11.307291492900     15.124461229600
     143   48  2  -0.35000    -19.036584607400     12.338566656900     15.120369873000
     144   48  2  -0.35000    -20.098761234700     10.276016328900     15.128552586300
     145   49  1   0.70000     -2.933453073470     19.726253047700    -12.170858934300
     146   49  2  -0.35000     -1.851492909420     19.765818885200    -11.754449583000
     147   49  2  -0.35000     -4.015413237530     19.686687210200    -12.587268285700
     148   50  1   0.70000    -17.798513029100      5.444812856820     -4.991761358410
     149   50  2  -0.35000    -17.758002569100      6.554675840890     -4.656853820120
     150   50  2  -0.35000    -17.839023489100      4.334949872740     -5.326668896700
     151   51  1   0.70000    -20.376874207400     23.341328046400     -7.052987824610
     152   51  2  -0.35000    -19.423656979500     24.001028707542     -7.095082409120
     153   51  2  -0.35000    -21.330091435400     22.681627385200     -7.010893240100
     154   52  1   0.70000      4.036610924680    -19.093660758400    -22.642812102900
     155   52  2  -0.35000      4.746652502490    -19.671017023100    -23.355623930400
     156   52  2  -0.35000      3.326569346880    -18.516304493700    -21.930000275400
     157   53  1   0.70000     16.810659101500    -11.070999812400     10.244384395800
     158   53  2  -0.35000     17.181767854800    -10.200612975000      9.573336672660
     159   53  2  -0.35000     16.439550348300    -11.941386649700     10.915432118900
     160   54  1   0.70000     16.279713888900      8.846545879670    -15.603921454100
     161   54  2  -0.35000     15.691802215900      9.005467114360    -16.591192392500
     162   54  2  -0.35000     16.867625561900      8.687624644980    -14.616650515600
     163   55  1   0.70000     -6.286741832420      8.395664647030    -17.982616973800
     164   55  2  -0.35000     -7.325554101760      8.578572959100    -18.465331815600
     165   55  2  -0.35000     -5.247929563090      8.212756334960    -17.499902132000
     166   56  1   0.70000      6.173095097890    -10.085690606700     -0.468942244556
     167   56  2  -0.35000      6.584520742880    -10.661903066200     -1.387804660900
     168   56  2  -0.35000      5.761669452900     -9.509478147240      0.449920171783
     169   57  1   0.70000     -4.960763870020     16.992697794100    -22.871210524900
     170   57  2  -0.35000     -5.109256521750     16.541130427400    -21.813081588700
     171   57  2  -0.35000     -4.812271218290     17.444265160800    -23.929339461142
     172   58  1   0.70000    -18.778161645800     -4.141519589220    -12.749041401400
     173   58  2  -0.35000    -17.997407631900     -3.630376734630    -12.060015892400
     174   58  2  -0.35000    -19.558915659600     -4.652662443820    -13.438066910400
     175   59  1   0.70000     -7.958048525990      9.181035985950     22.059365215500
     176   59  2  -0.35000     -9.101636128820      9.197775136770     22.253084588400
     177   59  2  -0.35000     -6.814460923150      9.164296835130     21.865645842500
     178   60  1   0.70000     22.858975724400     21.948238596900    -13.429224310200
     179   60  2  -0.35000     23.999630872642     22.125233297600    -13.314425753300
     180   60  2  -0.35000     21.718320576100     21.771243896200    -13.544022867100
     181   61  1   0.70000    -16.679733861700     11.793269839600      2.093956063450
     182   61  2  -0.35000    -17.108143046300     12.140083092300      1.073276810030
     183   61  2  -0.35000    -16.251324677100     11.446456587000      3.114635316860
     184   62  1   0.70000      4.124228501700     -9.340134635210    -18.068846002100
     185   62  2  -0.35000      4.491619585290     -9.760350374800    -19.085724816900
     186   62  2  -0.35000      3.756837418100     -8.919918895610    -17.051967187300
     187   63  1   0.70000     11.667751189400     13.597382679500    -18.117806039800
     188   63  2  -0.35000     11.339068262200     14.195402562100    -19.055857079700
     189   63  2  -0.35000     11.996434116700     12.999362796900    -17.179755000000
     190   64  1   0.70000    -16.733927815300      9.797329715610     -6.796877938470
     191   64  2  -0.35000    -17.383149352000     10.309110461200     -5.983126216710
     192   64  2  -0.35000    -16.084706278600      9.285548969990     -7.610629660240
     193   65  1   0.70000     22.493018983200    -18.842157672100     -8.876297145730
     194   65  2  -0.35000     21.631133681400    -19.553860828100     -8.566083760490
     195   65  2  -0.35000     23.354904285000    -18.130454516200     -9.186510530960
     196   66  1   0.70000     -5.171171844750      9.445049288910      4.015160294740
     197   66  2  -0.35000     -5.304561502610      8.537649604410      4.725394771330
     198   66  2  -0.35000     -5.037782186890     10.352448973400      3.304925818160
     199   67  1   0.70000    -23.468725145600    -20.671326868600     23.039852731200
     200   67  2  -0.35000    -24.503172792543    -20.440442065100     22.568460884400
     201   67  2  -0.35000    -22.434277498600    -20.902211672100     23.511244577942
     202   68  1   0.70000      1.395517902090    -21.982487319700      0.349333687987
     203   68  2  -0.35000      0.574580311013    -22.261525491900     -0.421249967452
     204   68  2  -0.35000      2.216455493170    -21.703449147500      1.119917343430
     205   69  1   0.70000    -14.410226294400     -9.628286759690      3.580539044660
     206   69  2  -0.35000    -14.670198079700     -9.164991884950      2.549339485950
     207   69  2  -0.35000    -14.150254509100    -10.091581634400      4.611738603380
     208   70  1   0.70000    -10.694297639300    -10.758083425100      6.707042309290
     209   70  2  -0.35000    -10.505280723500    -11.570430260500      7.513246517020
     210   70  2  -0.35000    -10.883314555200     -9.945736589710      5.900838101570
     211   71  1   0.70000    -15.761978610500    -10.232140412800     12.228098906800
     212   71  2  -0.35000    -16.067739871600     -9.711237701450     11.237760370500
     213   71  2  -0.35000    -15.456217349500    -10.753043124200     13.218437443100
     214   72  1   0.70000    -18.236138999300     -6.121664974660     -3.339955074380
     215   72  2  -0.35000    -18.344390976500     -7.274131876880     -3.415463674650
     216   72  2  -0.35000    -18.127887022100     -4.969198072440     -3.264446474110
     217   73  1   0.70000    -19.220789269200      7.766977248890     13.140262680200
     218   73  2  -0.35000    -18.101172451000      7.757514700410     13.443525999200
     219   73  2  -0.35000    -20.340406087400      7.776439797360     12.836999361300
     220   74  1   0.70000     -8.333146371340    -19.827899650600     10.971309698600
     221   74  2  -0.35000     -9.445640630430    -19.934087829300     10.660374666500
     222   74  2  -0.35000     -7.220652112240    -19.721711471800     11.282244730700
     223   75  1   0.70000     -8.408004457560      5.156970211330     -9.680235246310
     224   75  2  -0.35000     -9.427084617200      4.748045269120    -10.054208533900
     225   75  2  -0.35000     -7.388924297910      5.565895153540     -9.306261958680
     226   76  1   0.70000     -2.949890699540    -17.397460806700      3.632953026890
     227   76  2  -0.35000     -1.990389946320    -17.722876899800      4.197809354530
     228   76  2  -0.35000     -3.909391452760    -17.072044713500      3.068096699250
     229   77  1   0.70000     23.168184744600     -4.849000484800     22.823352208500
     230   77  2  -0.35000     22.279267427400     -5.083054223400     22.115789596000
     231   77  2  -0.35000     24.057102061842     -4.614946746190     23.530914820942
     232   78  1   0.70000     18.549030122700      3.141381972690    -19.514907559300
     233   78  2  -0.35000     18.581397282000      2.284105962670    -20.295695756900
     234   78  2  -0.35000     18.516662963300      3.998657982700    -18.734119361600
     235   79  1   0.70000     14.678052458700    -13.928224535800      2.580840581930
     236   79  2  -0.35000     13.987219607600    -14.705538758000      2.066902286320
     237   79  2  -0.35000     15.368885309900    -13.150910313600      3.094778877530
     238   80  1   0.70000    -22.733623297600     14.601460346800      6.923480964240
     239   80  2  -0.35000    -23.414847195300     14.067687624100      6.151068715680
     240   80  2  -0.35000    -22.052399399900     15.135233069400      7.695893212800
     241   81  1   0.70000     13.910837251100     12.286959989900     13.899124011800
     242   81  2  -0.35000     14.366656578100     11.246479293800     14.134131803300
     243   81  2  -0.35000     13.455017924200     13.327440686100     13.664116220300
     244   82  1   0.70000    -13.903043098800     10.819009410600    -18.694256667200
     245   82  2  -0.35000    -14.822568718900     11.427922408200    -19.053836415400
     246   82  2  -0.35000    -12.983517478800     10.210096413000    -18.334676918900
     247   83  1   0.70000     22.894740067600     -7.139180404740     16.745098407300
     248   83  2  -0.35000     21.799247416600     -7.321844473210     16.410240691600
     249   83  2  -0.35000     23.990232718542     -6.956516336260     17.079956122900
     250   84  1   0.70000     23.064741534900    -17.145601711200     20.602435119100
     251   84  2  -0.35000     24.052297561642    -16.655495142400     20.963168601300
     252   84  2  -0.35000     22.077185508000    -17.635708279900     20.241701636900
     253   85  1   0.70000      6.555036424770      9.428076572660     11.422290194000
     254   85  2  -0.35000      7.393659169410      9.211349924760     12.193873923900
     255   85  2  -0.35000      5.716413680130      9.644803220560     10.650706464100
     256   86  1   0.70000     16.730243402900      3.838723215460     23.398376899000
     257   86  2  -0.35000     16.847086996500      4.592078661210     24.272678418542
     258   86  2  -0.35000     16.613399809300      3.085367769710     22.524075379500
     259   87  1   0.70000    -14.254940873100      6.640297897920      9.964060740210
     260   87  2  -0.35000    -13.460622700900      6.362154327020      9.165753283630
     261   87  2  -0.35000    -15.049259045300      6.918441468830     10.762368196800
     262   88  1   0.70000     12.380959670900      5.516212037880     22.907012172700
     263   88  2  -0.35000     12.312479153300      5.547471464930     21.749457307100
     264   88  2  -0.35000     12.449440188400      5.484952610830     24.064567038342
     265   89  1   0.70000     10.052722922400     19.845626209700     11.417745150700
     266   89  2  -0.35000      9.833407718790     20.895319872700     10.975428459500
     267   89  2  -0.35000     10.272038126100     18.795932546800     11.860061842000
     268   90  1   0.70000    -11.880853132500     -3.395524288820     -2.889657178850
     269   90  2  -0.35000    -12.470823418400     -4.112782372680     -3.584693798660
     270   90  2  -0.35000    -11.290882846600     -2.678266204970     -2.194620559040
     271   91  1   0.70000    -14.301774236500      6.823671468790     -6.004485757490
     272   91  2  -0.35000    -14.918553515400      5.880380919130     -6.279051341790
     273   91  2  -0.35000    -13.684994957700      7.766962018440     -5.729920173180
     274   92  1   0.70000     -1.423063664940    -13.545158083600     21.962957825000
     275   92  2  -0.35000     -2.500873953820    -13.646068000200     22.379781732500
     276   92  2  -0.35000     -0.345253376062    -13.444248167000     21.546133917400
     277   93  1   0.70000    -13.121785099700    -14.728273844300     20.084861665400
     278   93  2  -0.35000    -12.510249374900    -13.748727496100     19.974802548500
     279   93  2  -0.35000    -13.733320824400    -15.707820192400     20.194920782300
     280   94  1   0.70000     18.070379057000     11.027004631400     -3.747239218690
     281   94  2  -0.35000     16.976483235700     11.361858500800     -3.939241349200
     282   94  2  -0.35000     19.164274878400     10.692150762100     -3.555237088180
     283   95  1   0.70000     12.300600877900    -20.320750170200    -12.519103144500
     284   95  2  -0.35000     13.301855448800    -20.905439212700    -12.484060202500
     285   95  2  -0.35000     11.299346307000    -19.736061127700    -12.554146086500
     286   96  1   0.70000     -4.390752217650      6.989783673410    -14.311308801500
     287   96  2  -0.35000     -4.739417449670      6.439648144350    -15.271196011300
     288   96  2  -0.35000     -4.042086985640      7.539919202480    -13.351421591600
     289   97  1   0.70000     -9.140271599870     13.309325638300     -7.086391950740
     290   97  2  -0.35000     -9.479581705940     13.315430753500     -5.977143836260
     291   97  2  -0.35000     -8.800961493810     13.303220523100     -8.195640065230
     292   98  1   0.70000    -11.507246800500      9.315863597840      6.554440271130
     293   98  2  -0.35000    -10.783579313300      8.411133555840      6.496397880090
     294   98  2  -0.35000    -12.230914287600     10.220593639800      6.612482662170
     295   99  1   0.70000      8.121175309220    -11.895641155200     -8.521519360600
     296   99  2  -0.35000      8.543996229580    -10.931239248700     -8.034948263940
     297   99  2  -0.35000      7.698354388860    -12.860043061700     -9.008090457270
     298  100  1   0.70000     -2.491376461640     21.250279969800     13.252523273100
     299  100  2  -0.35000     -2.768221697810     21.784836613400     14.244090673800
     300  100  2  -0.35000     -2.214531225470     20.715723326300     12.260955872400
     301  101  1   0.70000     -6.768329999600     20.520241989600     -6.371573141150
     302  101  2  -0.35000     -7.715305386110     21.137949673700     -6.112199213570
     303  101  2  -0.35000     -5.821354613080     19.902534305500     -6.630947068740
     304  102  1   0.70000     -3.167638153910     -0.429338316757    -18.659881655300
     305  102  2  -0.35000     -2.951088842270     -0.903480240704    -17.623592201700
     306  102  2  -0.35000     -3.384187465550      0.044803607191    -19.696171108800
     307  103  1   0.70000     -6.349439423000    -21.431112916600      2.589489339590
     308  103  2  -0.35000     -5.254606948350    -21.629666968500      2.917388929320
     309  103  2  -0.35000     -7.444271897650    -21.232558864800      2.261589749870
     310  104  1   0.70000      1.708965809450     21.138257347600     12.169916993500
     311  104  2  -0.35000      1.804156640310     20.753623768400     11.079689624800
     312  104  2  -0.35000      1.613774978590     21.522890926800     13.260144362200
     313  105  1   0.70000    -15.779702572700     16.762912757100     -1.348128012730
     314  105  2  -0.35000    -15.672402853400     16.129255472500     -2.313822175490
     315  105  2  -0.35000    -15.887002292000     17.396570041600     -0.382433849977
     316  106  1   0.70000      2.392761382400     14.373538382100     -2.835985083240
     317  106  2  -0.35000      2.551683021160     13.863039808100     -3.865419451580
     318  106  2  -0.35000      2.233839743640     14.884036956000     -1.806550714900
     319  107  1   0.70000    -10.155952588400     15.302573708800     -1.706880679620
     320  107  2  -0.35000     -9.564871721160     16.294059865700     -1.592082556670
     321  107  2  -0.35000    -10.747033455500     14.311087551900     -1.821678802570
     322  108  1   0.70000     -2.989018435240      1.617899352890     -1.932937549840
     323  108  2  -0.35000     -3.070373627950      1.374774231400     -3.064251612300
     324  108  2  -0.35000     -2.907663242520      1.861024474380     -0.801623487379
     325  109  1   0.70000     11.338628924700    -20.246834937000      4.486807474950
     326  109  2  -0.35000     11.106380859300    -21.369256748600      4.665217432350
     327  109  2  -0.35000     11.570876990100    -19.124413125300      4.308397517560
     328  110  1   0.70000    -13.722092650500     -0.835391157457     11.808292334200
     329  110  2  -0.35000    -12.841128489400     -0.945286290939     12.554901473200
     330  110  2  -0.35000    -14.603056811600     -0.725496023976     11.061683195200
     331  111  1   0.70000     12.050834499300    -10.895435585200    -21.910686274800
     332  111  2  -0.35000     12.314999762700    -10.019276203500    -21.197831835600
     333  111  2  -0.35000     11.786669235900    -11.771594966900    -22.623540714000
     334  112  1   0.70000    -17.977198528100    -14.088291544100     -3.267999156020
     335  112  2  -0.35000    -17.328961087400    -13.126678620400     -3.241754051110
     336  112  2  -0.35000    -18.625435968800    -15.049904467800     -3.294244260920
     337  113  1   0.70000      1.642237066970     -7.137002159260    -21.940533948900
     338  113  2  -0.35000      2.426847863630     -6.720710108690    -21.194419462800
     339  113  2  -0.35000      0.857626270315     -7.553294209830    -22.686648435100
     340  114  1   0.70000    -19.181746116200    -20.909091944600    -12.737246891500