LAMMPS Atom File

         3000 atoms
         2000 bonds
         1000 angles
           0 dihedrals
           0 impropers

           2 atom types
           1 bond types
           1 angle types

         0.0  118.417626791 xlo xhi
         0.0  118.417626791 ylo yhi
         0.0  118.417626791 zlo zhi

Masses

         1   12.01070
         2   15.99990

Atoms

       1    1  1   0.70000    -34.568263154500     42.541409832300    -45.592800379200
       2    1  2  -0.35000    -35.522611858100     42.355578450500    -46.225481380600
       3    1  2  -0.35000    -33.613914450900     42.727241214100    -44.960119377900
       4    2  1   0.70000     53.545453045400     25.234422854700    -51.516838010900
       5    2  2  -0.35000     52.578160293300     25.142743684100    -52.150509583100
       6    2  2  -0.35000     54.512745797500     25.326102025300    -50.883166438700
       7    3  1   0.70000     12.324896506300     39.805885177100      4.510155577100
       8    3  2  -0.35000     11.247951709200     39.698000862000      4.092841692220
       9    3  2  -0.35000     13.401841303400     39.913769492300      4.927469461990
      10    4  1   0.70000    -14.758331628100     25.214509430800    -58.672224262400
      11    4  2  -0.35000    -15.144554528200     25.092706257100    -57.585211908100
      12    4  2  -0.35000    -14.372108728000     25.336312604400    -59.759236616596
      13    5  1   0.70000    -47.753869710400     34.761870850300    -25.751298399800
      14    5  2  -0.35000    -47.985658800200     33.695414366400    -25.358177062400
      15    5  2  -0.35000    -47.522080620600     35.828327334100    -26.144419737300
      16    6  1   0.70000     29.678291709600     -0.170774766260    -13.229827986800
      17    6  2  -0.35000     29.462206519100     -0.047744164061    -12.096791949700
      18    6  2  -0.35000     29.894376900000     -0.293805368459    -14.362864023900
      19    7  1   0.70000      7.676979936600    -42.592472852400     52.723571350500
      20    7  2  -0.35000      8.243966170780    -43.000489593000     51.797477969900
      21    7  2  -0.35000      7.109993702420    -42.184456111700     53.649664731100
      22    8  1   0.70000    -18.613678887000    -57.787773505100    -23.696554728600
      23    8  2  -0.35000    -17.611793091800    -58.366944830300    -23.776463611700
      24    8  2  -0.35000    -19.615564682200    -57.208602180000    -23.616645845600
      25    9  1   0.70000    -14.000569218400      5.618128317260     30.932991025700
      26    9  2  -0.35000    -13.550619681700      5.802092405540     31.986225391200
      27    9  2  -0.35000    -14.450518755100      5.434164228970     29.879756660300
      28   10  1   0.70000     28.492555888300    -35.140941635900    -57.032346669900
      29   10  2  -0.35000     28.202273920300    -35.551473548900    -58.077717382900
      30   10  2  -0.35000     28.782837856300    -34.730409722800    -55.986975957000
      31   11  1   0.70000    -30.932840921600     56.182031787800      5.923589621770
      32   11  2  -0.35000    -30.053408493500     55.492720643900      6.235116107670
      33   11  2  -0.35000    -31.812273349600     56.871342931600      5.612063135870
      34   12  1   0.70000    -27.989634863000     41.178627827200      6.048263835090
      35   12  2  -0.35000    -28.266589599800     40.445732630100      5.192833707130
      36   12  2  -0.35000    -27.712680126300     41.911523024400      6.903693963040
      37   13  1   0.70000     34.572642588800     -1.090171279630     12.883937540200
      38   13  2  -0.35000     33.664337330100     -0.371667636543     12.818103872400
      39   13  2  -0.35000     35.480947847600     -1.808674922720     12.949771208100
      40   14  1   0.70000    -54.258677465900    -25.170546484900     43.964261839100
      41   14  2  -0.35000    -53.817408964700    -24.225761418500     44.472457951000
      42   14  2  -0.35000    -54.699945967100    -26.115331551300     43.456065727200
      43   15  1   0.70000     54.795615126000     34.916380587100    -33.952071302400
      44   15  2  -0.35000     54.045199721400     34.039784054600    -33.833516506100
      45   15  2  -0.35000     55.546030530700     35.792977119500    -34.070626098700
      46   16  1   0.70000    -29.411853968900     36.800855065600     49.346652068900
      47   16  2  -0.35000    -30.137567323700     36.089333676000     48.787476390900
      48   16  2  -0.35000    -28.686140614100     37.512376455100     49.905827746900
      49   17  1   0.70000      1.288842294780     45.296219150400     30.464939987600
      50   17  2  -0.35000      0.551064054406     44.860322005000     29.683097966100
      51   17  2  -0.35000      2.026620535150     45.732116295700     31.246782009200
      52   18  1   0.70000      2.098278657400     58.017687136700    -48.414754242200
      53   18  2  -0.35000      2.742277662680     58.601800123500    -49.182658728300
      54   18  2  -0.35000      1.454279652130     57.433574149800    -47.646849756100
      55   19  1   0.70000     53.426678512100     11.738287554000     49.532705082000
      56   19  2  -0.35000     53.874016321800     11.357624288700     48.532412943400
      57   19  2  -0.35000     52.979340702300     12.118950819300     50.532997220500
      58   20  1   0.70000    -37.205826692600     48.907109115500    -44.717620392400
      59   20  2  -0.35000    -38.024006333600     49.352002695600    -44.026062891200
      60   20  2  -0.35000    -36.387647051700     48.462215535400    -45.409177893600
      61   21  1   0.70000    -27.531662333000    -52.925592196400     12.804592600200
      62   21  2  -0.35000    -27.307565361500    -53.433113303000     11.785866496800
      63   21  2  -0.35000    -27.755759304400    -52.418071089800     13.823318703600
      64   22  1   0.70000     -4.517403823200    -51.894844116700    -55.214525739000
      65   22  2  -0.35000     -5.419488674780    -51.552957702400    -55.858696989700
      66   22  2  -0.35000     -3.615318971630    -52.236730531100    -54.570354488200
      67   23  1   0.70000     -2.210364282660     13.004132489200     37.323326027900
      68   23  2  -0.35000     -2.842690190940     12.392026004300     36.567621325700
      69   23  2  -0.35000     -1.578038374370     13.616238974100     38.079030730100
      70   24  1   0.70000     -1.589298359430    -11.698531381500     -9.151461893870
      71   24  2  -0.35000     -0.740475447252    -11.182306924600     -8.552619699390
      72   24  2  -0.35000     -2.438121271610    -12.214755838400     -9.750304088340
      73   25  1   0.70000     14.391698898100     45.982831434900      6.409080543360
      74   25  2  -0.35000     14.578044981200     47.011068240100      5.905489231160
      75   25  2  -0.35000     14.205352815000     44.954594629600      6.912671855560
      76   26  1   0.70000    -27.031787371400     25.720514717100    -43.651806690100
      77   26  2  -0.35000    -26.168746871200     25.591610510700    -42.887513028900
      78   26  2  -0.35000    -27.894827871600     25.849418923500    -44.416100351400
      79   27  1   0.70000     56.452766562800    -54.246256356400     46.791158627500
      80   27  2  -0.35000     56.832405783200    -53.740184102800     47.763457417100
      81   27  2  -0.35000     56.073127342300    -54.752328610100     45.818859837800
      82   28  1   0.70000     -7.489064374950      2.471278143140     28.489124150100
      83   28  2  -0.35000     -6.611561696140      1.745326372200     28.709539836800
      84   28  2  -0.35000     -8.366567053750      3.197229914090     28.268708463400
      85   29  1   0.70000     46.927154841900    -21.579393728300      1.190211206400
      86   29  2  -0.35000     47.803770878800    -22.060352812100      0.602144302350
      87   29  2  -0.35000     46.050538805000    -21.098434644600      1.778278110450
      88   30  1   0.70000     53.415391611900     42.827477901400     52.380065503400
      89   30  2  -0.35000     54.440412873200     42.468723321600     52.787774425700
      90   30  2  -0.35000     52.390370350600     43.186232481300     51.972356581100
      91   31  1   0.70000    -17.242351369600    -26.816549993300    -53.148063668300
      92   31  2  -0.35000    -18.161439199700    -27.304389599000    -53.660791744000
      93   31  2  -0.35000    -16.323263539500    -26.328710387500    -52.635335592600
      94   32  1   0.70000     26.630767223600    -51.608209719200    -46.083497725800
      95   32  2  -0.35000     27.002035696200    -50.568747092000    -46.440256983300
      96   32  2  -0.35000     26.259498751000    -52.647672346500    -45.726738468300
      97   33  1   0.70000    -54.627625126200    -16.202507720300    -41.086080484600
      98   33  2  -0.35000    -53.477853068900    -16.070683720900    -41.165116232500
      99   33  2  -0.35000    -55.777397183500    -16.334331719700    -41.007044736600
     100   34  1   0.70000     38.878301005500    -52.532402028900      4.886687070340
     101   34  2  -0.35000     38.336897598200    -52.656878163100      5.905013168670
     102   34  2  -0.35000     39.419704412900    -52.407925894800      3.868360972020
     103   35  1   0.70000     21.677380773900    -57.047134089700    -37.402007227900
     104   35  2  -0.35000     20.662767810800    -56.714551117700    -36.948631994800
     105   35  2  -0.35000     22.691993737000    -57.379717061600    -37.855382460900
     106   36  1   0.70000     10.443943463000     27.175356137000    -32.105615853000
     107   36  2  -0.35000     10.691053870000     28.306901179600    -32.169976270500
     108   36  2  -0.35000     10.196833056000     26.043811094400    -32.041255435400
     109   37  1   0.70000     42.181179414600    -58.772312815000     32.929685299100
     110   37  2  -0.35000     42.105085347800    -57.655910222300     32.623981285300
     111   37  2  -0.35000     42.257273481500    -59.888715407596     33.235389313000
     112   38  1   0.70000     -8.706524245760    -53.338967107000     34.191750263300
     113   38  2  -0.35000     -8.619037255140    -52.902858029600     35.263083497600
     114   38  2  -0.35000     -8.794011236380    -53.775076184400     33.120417028900
     115   39  1   0.70000     40.771259231000     -3.970864788270    -53.999477925200
     116   39  2  -0.35000     40.875329810700     -3.830653392940    -52.852695435300
     117   39  2  -0.35000     40.667188651300     -4.111076183600    -55.146260415000
     118   40  1   0.70000    -14.702061784900    -37.195060095900     -8.519096997280
     119   40  2  -0.35000    -15.587301153800    -37.487226248900     -7.828741872180
     120   40  2  -0.35000    -13.816822416000    -36.902893942900     -9.209452122390
     121   41  1   0.70000     47.088526286100    -53.320467346000     13.658679195200
     122   41  2  -0.35000     46.002154197600    -53.045581755000     13.358956661500
     123   41  2  -0.35000     48.174898374600    -53.595352937000     13.958401728900
     124   42  1   0.70000     41.803255256800     42.655108388500    -15.404295376300
     125   42  2  -0.35000     41.826129987900     42.057468710100    -16.398228755000
     126   42  2  -0.35000     41.780380525700     43.252748066900    -14.410361997500
     127   43  1   0.70000    -38.089180054000    -26.429000261900    -31.145526220600
     128   43  2  -0.35000    -39.007997900100    -26.648930040300    -30.472470013200
     129   43  2  -0.35000    -37.170362207900    -26.209070483400    -31.818582427900
     130   44  1   0.70000    -44.572117634000    -55.056366819700      5.411454314580
     131   44  2  -0.35000    -45.552401555300    -55.036715730000      4.791569431500
     132   44  2  -0.35000    -43.591833712600    -55.076017909400      6.031339197660
     133   45  1   0.70000     32.687488916500    -27.326804867200    -31.859656423700
     134   45  2  -0.35000     32.945743786000    -28.125603497200    -31.059140857900
     135   45  2  -0.35000     32.429234047100    -26.528006237200    -32.660171989500
     136   46  1   0.70000     56.563819085200     15.060292098900    -17.439337480500
     137   46  2  -0.35000     57.625796035100     14.620079004200    -17.594312927300
     138   46  2  -0.35000     55.501842135300     15.500505193500    -17.284362033600
     139   47  1   0.70000     -6.620141151820     -0.996379954081      3.633474673090
     140   47  2  -0.35000     -7.718223460390     -1.048673254940      3.263230626150
     141   47  2  -0.35000     -5.522058843260     -0.944086653223      4.003718720040
     142   48  1   0.70000     28.724584421200    -15.442583885400     28.024570556400
     143   48  2  -0.35000     28.397542222100    -14.560369199900     27.346086474900
     144   48  2  -0.35000     29.051626620300    -16.324798570800     28.703054637900
     145   49  1   0.70000     41.209384235000     24.286300322300    -47.165882628300
     146   49  2  -0.35000     41.413921976800     23.713594363900    -48.153694451200
     147   49  2  -0.35000     41.004846493200     24.859006280700    -46.178070805500
     148   50  1   0.70000     12.632210505300    -41.388539780300     47.086413771600
     149   50  2  -0.35000     11.675726481900    -40.903513722200     46.644273481800
     150   50  2  -0.35000     13.588694528800    -41.873565838400     47.528554061400
     151   51  1   0.70000      6.191422063460     14.976280632800     57.773235585100
     152   51  2  -0.35000      7.148799739830     14.517600482200     57.305645482400
     153   51  2  -0.35000      5.234044387090     15.434960783400     58.240825687900
     154   52  1   0.70000    -45.559979460400     19.727299429400     36.046831615200
     155   52  2  -0.35000    -45.309495995300     20.360290573500     36.986076122800
     156   52  2  -0.35000    -45.810462925500     19.094308285300     35.107587107500
     157   53  1   0.70000     -3.264740456670     56.872892965200    -29.064283942900
     158   53  2  -0.35000     -2.893631703430     57.743279802500    -29.735331666000
     159   53  2  -0.35000     -3.635849209920     56.002506127900    -28.393236219800
     160   54  1   0.70000    -43.503748654800     13.256511203900    -10.789448893900
     161   54  2  -0.35000    -43.733169946000     12.343490897100    -11.467209759300
     162   54  2  -0.35000    -43.274327363600     14.169531510600    -10.111688028500
     163   55  1   0.70000    -38.270670671900    -54.939509056400    -20.360868127500
     164   55  2  -0.35000    -38.484731550700    -54.458012036200    -21.394279255600
     165   55  2  -0.35000    -38.056609793100    -55.421006076600    -19.327456999400
     166   56  1   0.70000      6.924554773490    -51.246414324500    -54.809307091100
     167   56  2  -0.35000      6.108610409490    -52.064991224100    -54.710480707100
     168   56  2  -0.35000      7.740499137480    -50.427837424800    -54.908133475100
     169   57  1   0.70000     47.562116525500    -25.590595260000     18.171327888300
     170   57  2  -0.35000     47.384396639000    -24.451513400900     18.299811973000
     171   57  2  -0.35000     47.739836412100    -26.729677119200     18.042843803600
     172   58  1   0.70000     46.540287815400     18.780205665400    -40.036619363800
     173   58  2  -0.35000     47.387464898100     19.349416781000    -40.587881276600
     174   58  2  -0.35000     45.693110732800     18.210994549700    -39.485357451100
     175   59  1   0.70000    -14.349343742500     28.560032064800    -45.713750238300
     176   59  2  -0.35000    -15.353263310300     28.157161268200    -46.132606565300
     177   59  2  -0.35000    -13.345424174800     28.962902861500    -45.294893911300
     178   60  1   0.70000      8.219964246090    -26.828307691300     -2.807494420190
     179   60  2  -0.35000      7.543902725740    -25.911589808900     -3.026969121970
     180   60  2  -0.35000      8.896025766430    -27.745025573800     -2.588019718410
     181   61  1   0.70000    -28.017728154400     32.590689635800    -57.679165974000
     182   61  2  -0.35000    -28.446137339000     32.937502888500    -58.699845227400
     183   61  2  -0.35000    -27.589318969800     32.243876383100    -56.658486720600
     184   62  1   0.70000    -33.517027864000      2.030076241080    -28.715079424900
     185   62  2  -0.35000    -33.667807387400      3.141647657620    -29.010502039500
     186   62  2  -0.35000    -33.366248340500      0.918504824531    -28.419656810300
     187   63  1   0.70000    -17.277289124700     22.003100518800    -56.886331868800
     188   63  2  -0.35000    -18.204397280200     21.698422289300    -56.259242047100
     189   63  2  -0.35000    -16.350180969200     22.307778748300    -57.513421690600
     190   64  1   0.70000    -57.141561857400    -54.332027383100    -42.512172490300
     191   64  2  -0.35000    -56.973385520200    -54.175948675200    -41.375090190500
     192   64  2  -0.35000    -57.309738194600    -54.488106091000    -43.649254790100
     193   65  1   0.70000    -38.460634016900     32.775402613600      9.762774648690
     194   65  2  -0.35000    -39.283713487100     31.960201671500      9.822671306160
     195   65  2  -0.35000    -37.637554546600     33.590603555800      9.702877991210
     196   66  1   0.70000      0.464135647604    -26.382513908100    -52.450895593000
     197   66  2  -0.35000      0.907385649113    -26.281577252500    -53.518107487500
     198   66  2  -0.35000      0.020885646095    -26.483450563800    -51.383683698500
     199   67  1   0.70000     29.004740995600     47.371390860300    -40.490041796700
     200   67  2  -0.35000     27.966178864800     47.021083538400    -40.869875287400
     201   67  2  -0.35000     30.043303126400     47.721698182300    -40.110208305900
     202   68  1   0.70000    -47.389726254600     30.148412291500    -24.961118685200
     203   68  2  -0.35000    -46.368271815100     30.145694954600    -25.510867213300
     204   68  2  -0.35000    -48.411180694100     30.151129628500    -24.411370157100
     205   69  1   0.70000    -58.939769623000    -57.283737530700    -21.643965614500
     206   69  2  -0.35000    -59.596144591496    -58.195267444300    -21.933594890300
     207   69  2  -0.35000    -58.283394654600    -56.372207617100    -21.354336338700
     208   70  1   0.70000     -8.360651021290     25.463025805500     25.113366169800
     209   70  2  -0.35000     -9.360458058220     25.003598171800     25.480670047100
     210   70  2  -0.35000     -7.360843984360     25.922453439300     24.746062292500
     211   71  1   0.70000    -57.689284280500    -46.977761203300    -57.880375852900
     212   71  2  -0.35000    -58.009032853100    -47.971149027100    -57.373876611200
     213   71  2  -0.35000    -57.369535708000    -45.984373379600    -58.386875094600
     214   72  1   0.70000     14.480252742300    -44.368676901500     13.428445369400
     215   72  2  -0.35000     14.395918981800    -43.329375469500     13.936717295000
     216   72  2  -0.35000     14.564586502800    -45.407978333400     12.920173443800
     217   73  1   0.70000    -36.303815290600    -27.930595586900      3.471710240540
     218   73  2  -0.35000    -37.452414580000    -27.777932435600      3.416813658800
     219   73  2  -0.35000    -35.155216001200    -28.083258738300      3.526606822280
     220   74  1   0.70000    -21.704032548500    -26.052961163300      8.996361436750
     221   74  2  -0.35000    -21.412063023300    -25.641042645400     10.040716228500
     222   74  2  -0.35000    -21.996002073600    -26.464879681200      7.952006645010
     223   75  1   0.70000    -37.564908910000    -15.182597114700     27.144173006100
     224   75  2  -0.35000    -36.967553324600    -14.335640702800     27.665163544200
     225   75  2  -0.35000    -38.162264495400    -16.029553526700     26.623182468000
     226   76  1   0.70000    -53.016913965400    -22.207403880000    -14.129304080600
     227   76  2  -0.35000    -53.836739679700    -22.641444687300    -13.432816912200
     228   76  2  -0.35000    -52.197088251100    -21.773363072700    -14.825791249000
     229   77  1   0.70000    -54.046783011000      9.087917754460     43.651689483200
     230   77  2  -0.35000    -53.869128835400      8.236845495350     42.883760447600
     231   77  2  -0.35000    -54.224437186600      9.938990013560     44.419618518700
     232   78  1   0.70000    -18.279111453300    -47.373171398900     24.150775379800
     233   78  2  -0.35000    -19.005560765700    -48.053488491700     24.746627752200
     234   78  2  -0.35000    -17.552662140900    -46.692854306000     23.554923007400
     235   79  1   0.70000    -23.708752001700     11.806085598500    -22.844746617300
     236   79  2  -0.35000    -24.458413941400     11.624328620100    -23.711101842900
     237   79  2  -0.35000    -22.959090062000     11.987842576900    -21.978391391700
     238   80  1   0.70000    -14.141362155600    -38.945753554200     13.926360364000
     239   80  2  -0.35000    -13.862209087100    -39.528133847600     14.889950919200
     240   80  2  -0.35000    -14.420515224100    -38.363373260800     12.962769808700
     241   81  1   0.70000     56.781626473500     -9.850245964360     57.403504191400
     242   81  2  -0.35000     57.659536075100    -10.608384916900     57.413507191600
     243   81  2  -0.35000     55.903716871900     -9.092107011790     57.393501191300
     244   82  1   0.70000     50.343597928400     12.189326764100    -45.859698335000
     245   82  2  -0.35000     51.436634099700     12.210108549800    -45.471832320000
     246   82  2  -0.35000     49.250561757100     12.168544978500    -46.247564350100
     247   83  1   0.70000     28.929804480800    -35.823769968000     -0.087673610240
     248   83  2  -0.35000     28.182963588900    -36.063825268400      0.766845046672
     249   83  2  -0.35000     29.676645372600    -35.583714667700     -0.942192267151
     250   84  1   0.70000     51.266366138800     38.505052572600     11.917757956100
     251   84  2  -0.35000     52.305105477600     38.925000274100     11.617317422900
     252   84  2  -0.35000     50.227626800000     38.085104871000     12.218198489300
     253   85  1   0.70000     40.608745645500     35.888732379700     37.262848537300
     254   85  2  -0.35000     40.386610938900     34.788726135100     36.969177915700
     255   85  2  -0.35000     40.830880352100     36.988738624300     37.556519158900
     256   86  1   0.70000    -36.456672630500     34.969809309200    -44.255893527300
     257   86  2  -0.35000    -35.584237596100     35.726523879400    -44.364706072500
     258   86  2  -0.35000    -37.329107664800     34.213094739000    -44.147080982100
     259   87  1   0.70000     36.004554526900    -47.690695665500     35.559137402100
     260   87  2  -0.35000     35.155036458500    -46.984705959100     35.913393786500
     261   87  2  -0.35000     36.854072595400    -48.396685371800     35.204881017700
     262   88  1   0.70000    -22.135840293900    -31.923481844700    -19.721056520600
     263   88  2  -0.35000    -21.081866588400    -32.384035297100    -19.871489048400
     264   88  2  -0.35000    -23.189813999500    -31.462928392300    -19.570623992800
     265   89  1   0.70000    -55.204891244500    -21.122664361200     36.045232197800
     266   89  2  -0.35000    -55.568822814700    -21.704256996000     36.980595132400
     267   89  2  -0.35000    -54.840959674300    -20.541071726400     35.109869263200
     268   90  1   0.70000     54.801716237500    -44.912525792300     50.357057836000
     269   90  2  -0.35000     55.133928922800    -45.390590972100     51.360396470500
     270   90  2  -0.35000     54.469503552300    -44.434460612400     49.353719201400
     271   91  1   0.70000     19.627014711000     28.095062753600     20.755805706700
     272   91  2  -0.35000     20.355286273300     27.193308522500     20.801191147400
     273   91  2  -0.35000     18.898743148700     28.996816984800     20.710420265900
     274   92  1   0.70000     41.589884081800      6.235122227800     55.734776466700
     275   92  2  -0.35000     40.512073793000      6.134212311220     56.151600374300
     276   92  2  -0.35000     42.667694370700      6.336032144380     55.317952559100
     277   93  1   0.70000    -38.150850225600     17.460849279800     27.982324745900
     278   93  2  -0.35000    -38.521915453100     18.546298824200     27.809959193800
     279   93  2  -0.35000    -37.779784998200     16.375399735400     28.154690297900
     280   94  1   0.70000     26.571965377000     19.259106257300    -56.372144854000
     281   94  2  -0.35000     26.970532423200     18.706730231800    -57.311093753600
     282   94  2  -0.35000     26.173398330700     19.811482282800    -55.433195954400
     283   95  1   0.70000     17.104568595900     56.830460757800     28.082815001600
     284   95  2  -0.35000     17.510120552000     55.983417415600     28.763729965000
     285   95  2  -0.35000     16.699016639800     57.677504100000     27.401900038300
     286   96  1   0.70000    -24.229722684800     -6.579686907000     -5.896070635680
     287   96  2  -0.35000    -24.646177623000     -6.618490547290     -6.978040857980
     288   96  2  -0.35000    -23.813267746600     -6.540883266710     -4.814100413380
     289   97  1   0.70000    -38.845434318200     13.682287990100    -22.546732463400
     290   97  2  -0.35000    -38.248402126800     13.553634307100    -21.560527214800
     291   97  2  -0.35000    -39.442466509500     13.810941673100    -23.532937712000
     292   98  1   0.70000     -5.980393392430    -31.818461640800     53.197175236600
     293   98  2  -0.35000     -5.772395979140    -32.722283476000     52.500437720400
     294   98  2  -0.35000     -6.188390805730    -30.914639805700     53.893912752800
     295   99  1   0.70000    -26.021587622800    -34.926007114700     49.230357745800
     296   99  2  -0.35000    -26.390705190600    -36.018304931300     49.102930506900
     297   99  2  -0.35000    -25.652470055000    -33.833709298200     49.357784984700
     298  100  1   0.70000    -58.455639061000     29.760424289400     -9.839465446500
     299  100  2  -0.35000    -58.978791805600     28.731323668700     -9.952881134180
     300  100  2  -0.35000    -57.932486316300     30.789524910200     -9.726049758810
     301  101  1   0.70000     26.165211726100    -51.357516963000    -37.934040909200
     302  101  2  -0.35000     27.233759107000    -50.910293541300    -37.995666439600
     303  101  2  -0.35000     25.096664345300    -51.804740384600    -37.872415378700
     304  102  1   0.70000    -15.666713654400     15.244369204700    -33.664261006500
     305  102  2  -0.35000    -14.937916937100     15.740883557700    -34.417871543900
     306  102  2  -0.35000    -16.395510371800     14.747854851700    -32.910650469200
     307  103  1   0.70000    -25.007781615400     20.659324429800    -56.212868236500
     308  103  2  -0.35000    -24.618196873800     20.588444140800    -57.303189158800
     309  103  2  -0.35000    -25.397366357000     20.730204718800    -55.122547314100
     310  104  1   0.70000     -1.166919891310    -13.136194057300    -23.689069672300
     311  104  2  -0.35000     -0.096712620271    -12.703216459900    -23.575990951400
     312  104  2  -0.35000     -2.237127162350    -13.569171654800    -23.802148393300
     313  105  1   0.70000     45.735659475900    -17.350125962200     -3.256256928850
     314  105  2  -0.35000     45.842959195200    -17.983783246800     -4.221951091610
     315  105  2  -0.35000     45.628359756600    -16.716468677700     -2.290562766090
     316  106  1   0.70000     30.971175151400      1.235957494630      8.772835472110
     317  106  2  -0.35000     32.105304540600      1.463857824080      8.858928261620
     318  106  2  -0.35000     29.837045762200      1.008057165180      8.686742682590
     319  107  1   0.70000     46.631578532900    -20.510195661600     -2.178424583950
     320  107  2  -0.35000     45.821311583400    -20.067287440600     -1.476356369080
     321  107  2  -0.35000     47.441845482400    -20.953103882600     -2.880492798820
     322  108  1   0.70000     45.682180548400     26.263188574900     18.995020286300
     323  108  2  -0.35000     45.013791899000     25.491360674800     18.444440314000
     324  108  2  -0.35000     46.350569197800     27.035016475100     19.545600258600
     325  109  1   0.70000    -56.098413049200    -53.004756754200     -0.187323779268
     326  109  2  -0.35000    -55.957803707700    -53.393879486600      0.896379368357
     327  109  2  -0.35000    -56.239022390700    -52.615634021700     -1.271026926890
     328  110  1   0.70000     40.677515975000     39.169671279700    -20.368351613300
     329  110  2  -0.35000     39.926143966100     39.047316528300    -19.493097696400
     330  110  2  -0.35000     41.428887983900     39.292026031000    -21.243605530200
     331  111  1   0.70000     13.925598756000      0.735139586040     14.362156921200
     332  111  2  -0.35000     13.312601108800      0.154285643741     13.566894334300
     333  111  2  -0.35000     14.538596403200      1.315993528340     15.157419508200
     334  112  1   0.70000    -14.051366580100     11.617165874400    -38.665915236100
     335  112  2  -0.35000    -13.071403872700     12.181143252100    -38.406680574700
     336  112  2  -0.35000    -15.031329287400     11.053188496700    -38.925149897400
     337  113  1   0.70000     53.589901048800     48.194350430400     51.046190178000
     338  113  2  -0.35000     53.649183614800     47.038963330600     50.961536607600
     339  113  2  -0.35000     53.530618482800     49.349737530200     51.130843748400
     340  114  1   0.70000     53.685093957000      3.953197266790    -55.917426774800