LAMMPS Atom File

         3000 atoms
         2000 bonds
         1000 angles
           0 dihedrals
           0 impropers

           2 atom types
           1 bond types
           1 angle types

         0.0  103.447325445 xlo xhi
         0.0  103.447325445 ylo yhi
         0.0  103.447325445 zlo zhi

Masses

         1   12.01070
         2   15.99990

Atoms

       1    1  1   0.70000    -30.936087581100     35.171814734200    -39.527706480100
       2    1  2  -0.35000    -31.169936221900     36.284215658800    -39.758961741900
       3    1  2  -0.35000    -30.702238940400     34.059413809600    -39.296451218300
       4    2  1   0.70000     47.970045056600     19.941052633200    -44.930604815300
       5    2  2  -0.35000     48.164654331100     18.812392227500    -45.114596442300
       6    2  2  -0.35000     47.775435782000     21.069713039000    -44.746613188200
       7    3  1   0.70000      8.544419108540     38.415369265000     -3.003176916470
       8    3  2  -0.35000      8.562260197460     37.554627933500     -2.225741352670
       9    3  2  -0.35000      8.526578019620     39.276110596400     -3.780612480280
      10    4  1   0.70000    -12.293286667100     22.219003971600    -51.233981894200
      11    4  2  -0.35000    -12.572588950700     21.128380379000    -51.513500075000
      12    4  2  -0.35000    -12.013984383500     23.309627564300    -50.954463713300
      13    5  1   0.70000    -46.714728774300     33.460319792500    -24.251907543200
      14    5  2  -0.35000    -47.828108824500     33.604343690900    -23.959945250200
      15    5  2  -0.35000    -45.601348724100     33.316295894100    -24.543869836300
      16    6  1   0.70000     23.946241759000     -3.420586837870    -10.499806264100
      17    6  2  -0.35000     24.661075677400     -4.140148079500    -11.062695319400
      18    6  2  -0.35000     23.231407840500     -2.701025596230     -9.936917208860
      19    7  1   0.70000      7.112506081520    -42.549229005700     43.681233986600
      20    7  2  -0.35000      7.150110867810    -43.134840337800     42.680611556400
      21    7  2  -0.35000      7.074901295240    -41.963617673600     44.681856416800
      22    8  1   0.70000    -16.694324817400     51.181059896400    -23.741939803500
      23    8  2  -0.35000    -17.846170883600     51.082081201900    -23.646788042200
      24    8  2  -0.35000    -15.542478751100     51.280038590900    -23.837091564800
      25    9  1   0.70000    -10.584347845000      4.731020263390     30.524702826300
      26    9  2  -0.35000    -11.190850463100      4.213173965970     31.367074351500
      27    9  2  -0.35000     -9.977845226910      5.248866560800     29.682331301100
      28   10  1   0.70000     26.879902608000    -30.115704002600     49.773183229200
      29   10  2  -0.35000     26.243674794900    -30.855503620900     49.145878921200
      30   10  2  -0.35000     27.516130421000    -29.375904384400     50.400487537100
      31   11  1   0.70000    -30.357430092400     50.602703920200      7.762440868590
      32   11  2  -0.35000    -29.960538501200     50.493042907300      8.846899962830
      33   11  2  -0.35000    -30.754321683600     50.712364933000      6.677981774350
      34   12  1   0.70000    -23.823871719000     34.956065961000      2.859190105650
      35   12  2  -0.35000    -24.343820241200     34.009034066500      2.436834656800
      36   12  2  -0.35000    -23.303923196800     35.903097855400      3.281545554490
      37   13  1   0.70000     30.632120572100     -0.193594281835     10.944328497000
      38   13  2  -0.35000     31.615493976300     -0.190966172659     10.329048202400
      39   13  2  -0.35000     29.648747167900     -0.196222391011     11.559608791600
      40   14  1   0.70000    -45.607291788600    -20.885677325500     39.107795926900
      41   14  2  -0.35000    -45.166023287400    -19.940892259100     39.615992038800
      42   14  2  -0.35000    -46.048560289900    -21.830462391900     38.599599815000
      43   15  1   0.70000     46.777530750500     31.459874123200    -33.951033677900
      44   15  2  -0.35000     46.630453563100     30.545224778700    -33.252904121400
      45   15  2  -0.35000     46.924607937900     32.374523467600    -34.649163234400
      46   16  1   0.70000    -24.346614776300     30.820239815000     43.202011853000
      47   16  2  -0.35000    -23.232613287600     30.662911281000     43.484586472600
      48   16  2  -0.35000    -25.460616264900     30.977568349000     42.919437233300
      49   17  1   0.70000     -4.309814365630     39.505750069200     25.363320714200
      50   17  2  -0.35000     -3.681255327650     40.037085462000     26.180753424700
      51   17  2  -0.35000     -4.938373403610     38.974414676500     24.545888003700
      52   18  1   0.70000      6.167190416110     49.512980045700    -42.665495334400
      53   18  2  -0.35000      7.062343110510     49.449748235500    -41.930442008500
      54   18  2  -0.35000      5.272037721710     49.576211855800    -43.400548660300
      55   19  1   0.70000     48.180367148200     10.235954827400     40.227291519200
      56   19  2  -0.35000     47.366618030500     10.666218179300     39.521397886000
      57   19  2  -0.35000     48.994116266000      9.805691475460     40.933185152300
      58   20  1   0.70000    -30.896967985100     42.219244843800    -38.538460350700
      59   20  2  -0.35000    -30.617468016700     43.242647043800    -39.007638040600
      60   20  2  -0.35000    -31.176467953600     41.195842643800    -38.069282660700
      61   21  1   0.70000    -25.232607891100    -43.391909841400      9.721490134390
      62   21  2  -0.35000    -24.362524689100    -42.882675951800     10.295281095800
      63   21  2  -0.35000    -26.102691093000    -43.901143731000      9.147699173000
      64   22  1   0.70000     -3.584108739360    -42.497431058700    -47.097951614800
      65   22  2  -0.35000     -4.736755557330    -42.546089724300    -46.976965469800
      66   22  2  -0.35000     -2.431461921390    -42.448772393100    -47.218937759800
      67   23  1   0.70000     -0.587310349504     13.197872336300     33.144215903100
      68   23  2  -0.35000     -1.100946295560     12.309248470400     33.684702480000
      69   23  2  -0.35000     -0.073674403450     14.086496202200     32.603729326200
      70   24  1   0.70000     -0.353577752006    -11.708846896800     -6.045345975780
      71   24  2  -0.35000      0.015417539830    -11.523796482900     -7.129411849660
      72   24  2  -0.35000     -0.722573043842    -11.893897310700     -4.961280101890
      73   25  1   0.70000     11.677656032900     40.770396703200      2.877114604830
      74   25  2  -0.35000     12.473213683500     40.928087546600      2.047764484200
      75   25  2  -0.35000     10.882098382400     40.612705859900      3.706464725460
      76   26  1   0.70000    -22.344363222900     21.685060015400    -40.319491228700
      77   26  2  -0.35000    -23.162650875000     22.469357813400    -40.072747875700
      78   26  2  -0.35000    -21.526075570700     20.900762217300    -40.566234581700
      79   27  1   0.70000    -48.486214390500    -40.597370867500     39.379978935200
      80   27  2  -0.35000    -49.174417592800    -41.530884651100     39.402965195600
      81   27  2  -0.35000    -47.798011188100    -39.663857083900     39.356992674800
      82   28  1   0.70000     -9.236878619140      1.828042251060     27.244689776800
      83   28  2  -0.35000     -9.389411480370      0.823612525266     26.684819566700
      84   28  2  -0.35000     -9.084345757920      2.832471976860     27.804559987000
      85   29  1   0.70000     40.291241647000    -19.369005637500      2.068312364630
      86   29  2  -0.35000     39.916334130000    -18.272785338000      2.010472856380
      87   29  2  -0.35000     40.666149164100    -20.465225936900      2.126151872880
      88   30  1   0.70000     44.710601113900     36.423962808600     46.299906134600
      89   30  2  -0.35000     45.563983269300     37.149577054700     46.601274452300
      90   30  2  -0.35000     43.857218958600     35.698348562600     45.998537817000
      91   31  1   0.70000    -15.673604673600    -23.217024954200    -46.890727276600
      92   31  2  -0.35000    -14.809596003300    -23.974201500900    -46.730188512200
      93   31  2  -0.35000    -16.537613343800    -22.459848407500    -47.051266040900
      94   32  1   0.70000     20.991215576100    -43.571847857400    -41.745844682000
      95   32  2  -0.35000     21.362484048700    -42.532385230200    -42.102603939500
      96   32  2  -0.35000     20.619947103600    -44.611310484700    -41.389085424500
      97   33  1   0.70000    -49.517945398900    -11.551614778800    -37.304076801700
      98   33  2  -0.35000    -49.041627054600    -12.592453371500    -37.115992089900
      99   33  2  -0.35000    -49.994263743300    -10.510776186200    -37.492161513500
     100   34  1   0.70000     33.135076229300    -43.408734005700      5.481523788030
     101   34  2  -0.35000     32.593672821900    -43.533210139900      6.499849886360
     102   34  2  -0.35000     33.676479636600    -43.284257871600      4.463197689700
     103   35  1   0.70000     16.201204348900    -47.357612420000    -27.968742841100
     104   35  2  -0.35000     16.858486231700    -47.173422606100    -27.030843785300
     105   35  2  -0.35000     15.543922466000    -47.541802233900    -28.906641896900
     106   36  1   0.70000      9.942240887210     24.704191588700    -27.989347710600
     107   36  2  -0.35000     10.189351294200     25.835736631300    -28.053708128100
     108   36  2  -0.35000      9.695130480200     23.572646546200    -27.924987293000
     109   37  1   0.70000     38.589547956800    -48.792756953200     31.821279040600
     110   37  2  -0.35000     37.812483881700    -48.739786121100     32.680910074400
     111   37  2  -0.35000     39.366612031900    -48.845727785300     30.961648006900
     112   38  1   0.70000    -11.910438307900    -48.277444670300     28.863046154200
     113   38  2  -0.35000    -12.756161075400    -47.842288828500     29.527118736000
     114   38  2  -0.35000    -11.064715540400    -48.712600512200     28.198973572500
     115   39  1   0.70000     35.839425033100     -4.307984951470    -45.786291678400
     116   39  2  -0.35000     36.500758856600     -3.366569565870    -45.934530154500
     117   39  2  -0.35000     35.178091209700     -5.249400337070    -45.638053202400
     118   40  1   0.70000    -16.524405334400    -32.473456870400     -8.683710526310
     119   40  2  -0.35000    -17.092867376200    -32.106597243700     -9.625976370560
     120   40  2  -0.35000    -15.955943292500    -32.840316497200     -7.741444682070
     121   41  1   0.70000     39.337252425600    -48.284975480700     13.967593238800
     122   41  2  -0.35000     38.250880337100    -48.010089889700     13.667870705100
     123   41  2  -0.35000     40.423624514100    -48.559861071700     14.267315772500
     124   42  1   0.70000     33.378810191300     35.283474768900    -14.555231974600
     125   42  2  -0.35000     33.248213334700     34.136696350600    -14.671179032600
     126   42  2  -0.35000     33.509407047900     36.430253187200    -14.439284916500
     127   43  1   0.70000    -36.282650837400    -23.101933474500    -27.706896450900
     128   43  2  -0.35000    -37.408326951800    -23.298654988800    -27.906280329900
     129   43  2  -0.35000    -35.156974722900    -22.905211960200    -27.507512571800
     130   44  1   0.70000    -39.911043738800    -50.617059503000      8.347217218620
     131   44  2  -0.35000    -40.093784981100    -51.099615936900      9.386132482960
     132   44  2  -0.35000    -39.728302496400    -50.134503069200      7.308301954280
     133   45  1   0.70000     27.133752950000    -23.683745670000    -24.214444251200
     134   45  2  -0.35000     26.911985903000    -22.546299673100    -24.163102445700
     135   45  2  -0.35000     27.355519997000    -24.821191666900    -24.265786056700
     136   46  1   0.70000     48.797668532900     13.613096022400    -17.157702851400
     137   46  2  -0.35000     47.871674402000     13.160180421400    -16.625723220200
     138   46  2  -0.35000     49.723662663800     14.066011623400    -17.689682482500
     139   47  1   0.70000     -4.426325478790      0.010172116192      2.942994915270
     140   47  2  -0.35000     -4.324550620470      0.294758797931      4.062928975290
     141   47  2  -0.35000     -4.528100337100     -0.274414565546      1.823060855250
     142   48  1   0.70000     22.553780598900    -12.428501630200     20.085643139400
     143   48  2  -0.35000     22.176610467500    -13.059824533900     19.188551124400
     144   48  2  -0.35000     22.930950730400    -11.797178726600     20.982735154300
     145   49  1   0.70000     36.906860245800     19.959536651700    -41.225330283200
     146   49  2  -0.35000     36.990563999000     21.110007694100    -41.102814724500
     147   49  2  -0.35000     36.823156492500     18.809065609200    -41.347845842000
     148   50  1   0.70000     13.701186219300    -37.500906595800     42.518671371500
     149   50  2  -0.35000     14.560536043000    -38.057568339300     41.973469038600
     150   50  2  -0.35000     12.841836395600    -36.944244852400     43.063873704400
     151   51  1   0.70000      3.566103050240     12.868389317500     47.810236219700
     152   51  2  -0.35000      3.834876208570     13.514396142800     46.885013991800
     153   51  2  -0.35000      3.297329891910     12.222382492300     48.735458447700
     154   52  1   0.70000    -37.935292496700     16.128604307100     32.127435655200
     155   52  2  -0.35000    -37.477765195200     16.269426522900     33.184051892000
     156   52  2  -0.35000    -38.392819798200     15.987782091300     31.070819418300
     157   53  1   0.70000     -4.066243098800     48.944461279400    -24.144578033000
     158   53  2  -0.35000     -3.695134345550     49.814848116700    -24.815625756100
     159   53  2  -0.35000     -4.437351852040     48.074074442100    -23.473530309900
     160   54  1   0.70000    -40.729412885600     12.019269244000     -9.138164313600
     161   54  2  -0.35000    -39.701270890200     11.620323429500     -9.497839548030
     162   54  2  -0.35000    -41.757554881100     12.418215058500     -8.778489079160
     163   55  1   0.70000    -35.410913428800    -48.190036299600    -17.176080299300
     164   55  2  -0.35000    -36.449725698200    -48.007127987500    -17.658795141100
     165   55  2  -0.35000    -34.372101159500    -48.372944611700    -16.693365457600
     166   56  1   0.70000      6.115564843600    -50.604276602400     50.221862845900
     167   56  2  -0.35000      5.133248094470    -50.573359111000     49.605666519200
     168   56  2  -0.35000      7.097881592730    -50.635194093700     50.838059172700
     169   57  1   0.70000     39.041632997400    -22.130002099800     18.956177843900
     170   57  2  -0.35000     38.863913110800    -20.990920240700     19.084661928600
     171   57  2  -0.35000     39.219352884000    -23.269083959000     18.827693759200
     172   58  1   0.70000     40.550732733100     15.342402975300    -36.418512378900
     173   58  2  -0.35000     39.440936797500     15.665839782100    -36.515164400000
     174   58  2  -0.35000     41.660528668700     15.018966168400    -36.321860357700
     175   59  1   0.70000    -13.370187948500     22.961843295000    -39.173813239000
     176   59  2  -0.35000    -13.172178586200     22.462074026400    -40.201734914300
     177   59  2  -0.35000    -13.568197310700     23.461612563700    -38.145891563600
     178   60  1   0.70000      5.113700086560    -20.846939006700     -1.883181452400
     179   60  2  -0.35000      5.728249702540    -21.160579248800     -0.950680209491
     180   60  2  -0.35000      4.499150470590    -20.533298764500     -2.815682695310
     181   61  1   0.70000    -23.455228072000     24.933422595100    -50.570281591700
     182   61  2  -0.35000    -22.802797407200     23.994499531700    -50.374430350700
     183   61  2  -0.35000    -24.107658736900     25.872345658500    -50.766132832700
     184   62  1   0.70000    -28.352814348100      0.548804774230    -22.739526062800
     185   62  2  -0.35000    -27.397516972700     -0.106522653379    -22.679919962500
     186   62  2  -0.35000    -29.308111723500      1.204132201840    -22.799132163100
     187   63  1   0.70000    -14.507939520900     20.239473741900    -47.260742337300
     188   63  2  -0.35000    -14.391764583900     19.864475137600    -46.169193240400
     189   63  2  -0.35000    -14.624114457900     20.614472346200    -48.352291434100
     190   64  1   0.70000    -47.491090989800    -47.382779999900    -38.463689804800
     191   64  2  -0.35000    -47.370071857500    -46.556102269700    -37.658979732800
     192   64  2  -0.35000    -47.612110122200    -48.209457730100    -39.268399876900
     193   65  1   0.70000    -31.728509039700     26.842414994500      9.945443802640
     194   65  2  -0.35000    -31.942635175600     26.169264431200     10.865562445500
     195   65  2  -0.35000    -31.514382903800     27.515565557800      9.025325159730
     196   66  1   0.70000     -0.368168947187    -24.216073368400    -48.294802481400
     197   66  2  -0.35000      0.075081054322    -24.115136712700    -49.362014375800
     198   66  2  -0.35000     -0.811418948696    -24.317010024100    -47.227590586900
     199   67  1   0.70000     24.982366953100     40.912123267600    -36.075615525500
     200   67  2  -0.35000     23.943804822300     40.561815945600    -36.455449016200
     201   67  2  -0.35000     26.020929083900     41.262430589500    -35.695782034700
     202   68  1   0.70000    -43.662774229400     24.256368372300    -21.813276504300
     203   68  2  -0.35000    -43.361508269500     24.286205064000    -22.933074965200
     204   68  2  -0.35000    -43.964040189300     24.226531680600    -20.693478043300
     205   69  1   0.70000    -49.225439914300    -48.959023793800    -18.609987203300
     206   69  2  -0.35000    -48.991138982100    -48.426109095900    -17.606640305200
     207   69  2  -0.35000    -49.459740846600    -49.491938491800    -19.613334101300
     208   70  1   0.70000    -10.325292974400     25.393757328400     17.981200271100
     209   70  2  -0.35000    -10.214832019800     24.309153642000     17.584926097100
     210   70  2  -0.35000    -10.435753928900     26.478361014700     18.377474445100
     211   71  1   0.70000    -51.255103414000    -38.539592510700     50.928495122400
     212   71  2  -0.35000    -50.509272632700    -38.640875133000     51.811149231399
     213   71  2  -0.35000    -52.000934195399    -38.438309888400     50.045841013500
     214   72  1   0.70000     12.325586744500    -38.283059531100      9.568192291340
     215   72  2  -0.35000     12.772103756300    -39.231471127400      9.071464999930
     216   72  2  -0.35000     11.879069732700    -37.334647934700     10.064919582800
     217   73  1   0.70000    -31.175216476000    -25.469637701800      0.647796698068
     218   73  2  -0.35000    -31.678855515600    -25.744999777300     -0.360232788193
     219   73  2  -0.35000    -30.671577436400    -25.194275626300      1.655826184330
     220   74  1   0.70000    -20.656320379800    -24.779354770800      7.718384696150
     221   74  2  -0.35000    -21.637359945300    -25.226201593200      8.146741192930
     222   74  2  -0.35000    -19.675280814300    -24.332507948500      7.290028199370
     223   75  1   0.70000    -36.940170370300    -13.963518146700     22.002970507700
     224   75  2  -0.35000    -35.815167137600    -14.065435918700     21.739189359200
     225   75  2  -0.35000    -38.065173602900    -13.861600374700     22.266751656100
     226   76  1   0.70000    -47.279389096600    -14.971669080400    -15.740040784300
     227   76  2  -0.35000    -46.469785205300    -14.917198517300    -14.911080895700
     228   76  2  -0.35000    -48.088992987900    -15.026139643500    -16.569000673000
     229   77  1   0.70000    -46.703529537400      7.676494989510     38.730340652700
     230   77  2  -0.35000    -47.526075926200      8.407651684220     39.096983975500
     231   77  2  -0.35000    -45.880983148600      6.945338294810     38.363697329900
     232   78  1   0.70000    -14.540027590200    -39.705635598200     20.073350856400
     233   78  2  -0.35000    -14.210377474900    -39.842987813100     18.969690958400
     234   78  2  -0.35000    -14.869677705500    -39.568283383400     21.177010754500
     235   79  1   0.70000    -20.516951660300     10.637651642400    -15.934721648400
     236   79  2  -0.35000    -20.932013429600     10.933677921300    -14.892756116400
     237   79  2  -0.35000    -20.101889891000     10.341625363500    -16.976687180400
     238   80  1   0.70000    -12.178042892800    -37.505766283100     11.837580122800
     239   80  2  -0.35000    -12.332227695100    -36.404579520900     11.507103555500
     240   80  2  -0.35000    -12.023858090400    -38.606953045300     12.168056690100
     241   81  1   0.70000     41.196424391900    -11.683970947200     46.131305951400
     242   81  2  -0.35000     41.372430546400    -11.568790193800     47.272075528300
     243   81  2  -0.35000     41.020418237500    -11.799151700600     44.990536374500
     244   82  1   0.70000     46.081452768700     13.824915032100    -39.027609297800
     245   82  2  -0.35000     45.863283492200     12.770538252700    -38.595993990000
     246   82  2  -0.35000     46.299622045200     14.879291811500    -39.459224605500
     247   83  1   0.70000     29.554485341400    -30.286084130300      1.395292213920
     248   83  2  -0.35000     30.615708922000    -30.652987348700      1.104110929600
     249   83  2  -0.35000     28.493261760700    -29.919180912000      1.686473498240
     250   84  1   0.70000     47.275284761900     37.740430191600     12.637206467900
     251   84  2  -0.35000     48.213056897300     37.452769859000     12.017985219000
     252   84  2  -0.35000     46.337512626500     38.028090524200     13.256427716800
     253   85  1   0.70000     34.645483331600     33.753543622300     35.083030148800
     254   85  2  -0.35000     34.319116272600     33.328552833200     34.054211714000
     255   85  2  -0.35000     34.971850390600     34.178534411400     36.111848583700
     256   86  1   0.70000    -37.252082939700     30.676006104900    -36.056658154900
     257   86  2  -0.35000    -36.379647905400     31.432720675200    -36.165470700100
     258   86  2  -0.35000    -38.124517974100     29.919291534700    -35.947845609800
     259   87  1   0.70000     31.361052548600    -41.430157340500     30.709158909100
     260   87  2  -0.35000     32.155370720900    -41.708300911400     29.910851452600
     261   87  2  -0.35000     30.566734376400    -41.152013769600     31.507466365700
     262   88  1   0.70000    -16.446412220900    -27.725121959900    -13.058938206700
     263   88  2  -0.35000    -17.594265252100    -27.607030154900    -12.940246402600
     264   88  2  -0.35000    -15.298559189700    -27.843213764800    -13.177630010900
     265   89  1   0.70000    -50.780338678400    -17.522419974500     28.049123878900
     266   89  2  -0.35000    -49.903386189700    -18.155020288100     27.629158194700
     267   89  2  -0.35000    -51.657291167100    -16.889819660800     28.469089563000
     268   90  1   0.70000     49.806984443300    -38.676371418000     44.911905981700
     269   90  2  -0.35000     49.669083007800    -39.075416693300     43.831468078700
     270   90  2  -0.35000     49.944885878800    -38.277326142800     45.992343884800
     271   91  1   0.70000     16.930198873300     23.972867170300     21.746587720300
     272   91  2  -0.35000     17.755129333000     23.402305921500     21.163878875400
     273   91  2  -0.35000     16.105268413500     24.543428419100     22.329296565200
     274   92  1   0.70000     35.101010666800      7.908512302240     50.688130692200
     275   92  2  -0.35000     35.670995338700      7.155939875230     50.014074154600
     276   92  2  -0.35000     34.531025994900      8.661084729240     51.362187229800
     277   93  1   0.70000    -32.909526870800     15.953868752600     20.489419358600
     278   93  2  -0.35000    -33.307684977900     16.960432164700     20.072405906700
     279   93  2  -0.35000    -32.511368763700     14.947305340400     20.906432810400
     280   94  1   0.70000     24.348277303600     18.883227151200    -49.389949997800
     281   94  2  -0.35000     24.746844349800     18.330851125700    -50.328898897400
     282   94  2  -0.35000     23.949710257300     19.435603176800    -48.451001098200
     283   95  1   0.70000     18.403296500900     49.641883491800     26.575297718000
     284   95  2  -0.35000     18.763108690500     49.545039945000     25.476773018400
     285   95  2  -0.35000     18.043484311300     49.738727038500     27.673822417600
     286   96  1   0.70000    -23.249712290500     -3.778162653310     -4.687843096070
     287   96  2  -0.35000    -23.598377522500     -4.328298182380     -5.647730305930
     288   96  2  -0.35000    -22.901047058400     -3.228027124250     -3.727955886220
     289   97  1   0.70000    -34.279442704200     12.801865906600    -21.336351860700
     290   97  2  -0.35000    -35.416817394800     12.839799566700    -21.111541160900
     291   97  2  -0.35000    -33.142068013700     12.763932246400    -21.561162560400
     292   98  1   0.70000     -7.324548535760    -27.167362761400     49.521828075100
     293   98  2  -0.35000     -7.116551122460    -28.071184596500     48.825090558900
     294   98  2  -0.35000     -7.532545949050    -26.263540926300     50.218565591200
     295   99  1   0.70000    -23.347845187900    -30.345579963600     38.275432804300
     296   99  2  -0.35000    -22.381895253700    -29.776398532700     37.977820265300
     297   99  2  -0.35000    -24.313795122100    -30.914761394400     38.573045343400
     298  100  1   0.70000     50.984956801500     23.777920333500     -6.068989676620
     299  100  2  -0.35000     51.551291104600     24.299305946600     -5.201220986520
     300  100  2  -0.35000     50.418622498300     23.256534720400     -6.936758366730
     301  101  1   0.70000     20.250158679300    -47.867430242800    -28.149177768900
     302  101  2  -0.35000     19.463341585100    -47.033051785100    -28.323337033900
     303  101  2  -0.35000     21.036975773400    -48.701808700500    -27.975018503900
     304  102  1   0.70000    -16.238304744800     13.271633928600    -28.079048490800
     305  102  2  -0.35000    -17.227098002100     12.842681466400    -28.507869758500
     306  102  2  -0.35000    -15.249511487500     13.700586390700    -27.650227223200
     307  103  1   0.70000    -23.181472045100     16.374010273600    -46.448336361300
     308  103  2  -0.35000    -23.480785277500     17.363742028600    -46.974114491200
     309  103  2  -0.35000    -22.882158812600     15.384278518500    -45.922558231300
     310  104  1   0.70000      3.747859736770    -10.321031688900    -28.487497982700
     311  104  2  -0.35000      4.273162112790     -9.287355362180    -28.521712969300
     312  104  2  -0.35000      3.222557360740    -11.354708015600    -28.453282996100
     313  105  1   0.70000     35.407338210700    -14.236582926700     -2.788737608230
     314  105  2  -0.35000     35.514637930000    -14.870240211200     -3.754431770990
     315  105  2  -0.35000     35.300038491400    -13.602925642100     -1.823043445470
     316  106  1   0.70000     27.914438472500     -0.322128897691      8.282437346640
     317  106  2  -0.35000     27.140548569300      0.507775619999      8.523171451710
     318  106  2  -0.35000     28.688328375600     -1.152033415380      8.041703241580
     319  107  1   0.70000     41.463476700100    -19.159353804700     -1.597204272230
     320  107  2  -0.35000     40.830986777300    -18.799403625700     -2.500527230090
     321  107  2  -0.35000     42.095966623000    -19.519303983600     -0.693881314365
     322  108  1   0.70000     40.846824434100     25.251587944600     17.999480506800
     323  108  2  -0.35000     40.426985657200     25.319571231700     19.078699518000
     324  108  2  -0.35000     41.266663211000     25.183604657500     16.920261495600
     325  109  1   0.70000    -47.178635872100    -47.663526602700      1.045718971940
     326  109  2  -0.35000    -47.241336476600    -48.708820052100      0.546689675241
     327  109  2  -0.35000    -47.115935267700    -46.618233153400      1.544748268640
     328  110  1   0.70000     36.453808859900     34.269360095700    -19.754493815700
     329  110  2  -0.35000     37.191190647100     33.411216499900    -20.010340779300
     330  110  2  -0.35000     35.716427072700     35.127503691600    -19.498646852100
     331  111  1   0.70000     15.134087768800      2.892236514140     11.833499191500
     332  111  2  -0.35000     14.295991151000      2.090973512080     11.799269660000
     333  111  2  -0.35000     15.972184386500      3.693499516200     11.867728723000
     334  112  1   0.70000    -17.499082276200      9.304816748290    -30.809771650200
     335  112  2  -0.35000    -17.942459539000      8.937286049860    -31.816716429500
     336  112  2  -0.35000    -17.055705013400      9.672347446720    -29.802826870900
     337  113  1   0.70000     46.747796253700     43.135828381600     44.638790869500
     338  113  2  -0.35000     47.532407050400     43.552120432200     45.384905355600
     339  113  2  -0.35000     45.963185457000     42.719536331000     43.892676383300
     340  114  1   0.70000     48.863430232900      1.969966061250    -50.669053075400