LAMMPS Atom File

         3000 atoms
         2000 bonds
         1000 angles
           0 dihedrals
           0 impropers

           2 atom types
           1 bond types
           1 angle types

         0.0  41.0530983086 xlo xhi
         0.0  41.0530983086 ylo yhi
         0.0  41.0530983086 zlo zhi

Masses

         1   12.01070
         2   15.99990

Atoms

       1    1  1   0.70000    -12.124000013600     17.027904352400    -17.629424909700
       2    1  2  -0.35000    -11.631378225300     16.135237679500    -17.076188988400
       3    1  2  -0.35000    -12.616621802000     17.920571025400    -18.182660831000
       4    2  1   0.70000      2.584965302720     14.083562643300     -0.002705888987
       5    2  2  -0.35000      2.517078147290     15.144456233600     -0.466921490087
       6    2  2  -0.35000      2.652852458150     13.022669053100      0.461509712113
       7    3  1   0.70000     -0.897961258405     10.321247397300     20.456570366900
       8    3  2  -0.35000      0.219914782193     10.461800931500     20.180530764800
       9    3  2  -0.35000     -2.015837299000     10.180693863100     20.732609968953
      10    4  1   0.70000    -20.138483087100     16.475126753000     -8.655169985530
      11    4  2  -0.35000    -20.749623024053     15.602673975000     -8.195894330080
      12    4  2  -0.35000    -19.527343150200     17.347579531000     -9.114445640970
      13    5  1   0.70000      8.275152372410     -1.153061793170     -6.397210349270
      14    5  2  -0.35000      7.986057834860     -2.019070854380     -5.681631804140
      15    5  2  -0.35000      8.564246909970     -0.287052731958     -7.112788894400
      16    6  1   0.70000      4.907746248660    -13.052929809500     19.621204054700
      17    6  2  -0.35000      3.763612919860    -12.917976418300     19.485754772300
      18    6  2  -0.35000      6.051879577470    -13.187883200700     19.756653337200
      19    7  1   0.70000     -5.475890484340    -20.334982795400     -8.553209002350
      20    7  2  -0.35000     -6.145829562950    -21.281823033053     -8.536619990700
      21    7  2  -0.35000     -4.805951405740    -19.388142557800     -8.569798014000
      22    8  1   0.70000     -3.388263759890      3.939318839720      9.793984700720
      23    8  2  -0.35000     -2.992051209060      3.211399875310     10.605618605800
      24    8  2  -0.35000     -3.784476310730      4.667237804130      8.982350795680
      25    9  1   0.70000     10.231595443900     -9.921122552720     16.109913474000
      26    9  2  -0.35000     10.444139374000     -9.464723826600     17.154961454000
      27    9  2  -0.35000     10.019051513800    -10.377521278800     15.064865493900
      28   10  1   0.70000    -12.456472868800     20.046176840100      3.118721473310
      29   10  2  -0.35000    -13.440279961700     19.639507019200      3.579528657160
      30   10  2  -0.35000    -11.472665775900     20.452846661100      2.657914289470
      31   11  1   0.70000     -5.818091455210     12.646313292700      0.943758259848
      32   11  2  -0.35000     -5.573784971020     11.535801616900      1.173275491620
      33   11  2  -0.35000     -6.062397939410     13.756824968500      0.714241028079
      34   12  1   0.70000     12.791556414600      4.866006229440      3.110807578900
      35   12  2  -0.35000     12.929811980100      5.932924678040      3.544593727410
      36   12  2  -0.35000     12.653300849000      3.799087780850      2.677021430380
      37   13  1   0.70000    -14.387206052700     -9.308734934190     16.111498230600
      38   13  2  -0.35000    -14.454020344400     -9.084054392470     17.247567992800
      39   13  2  -0.35000    -14.320391761000     -9.533415475910     14.975428468400
      40   14  1   0.70000    -19.653247847600     13.887033686600    -13.146102286600
      41   14  2  -0.35000    -20.586042593053     14.188533915900    -13.766256763100
      42   14  2  -0.35000    -18.720453102200     13.585533457300    -12.525947810200
      43   15  1   0.70000     -9.485965350720     14.266391855900     17.739583902800
      44   15  2  -0.35000     -8.732554374890     15.069184402600     17.374212819500
      45   15  2  -0.35000    -10.239376326500     13.463599309300     18.104954986100
      46   16  1   0.70000     -1.825988067090     16.635392746600     12.710247655400
      47   16  2  -0.35000     -2.954427098570     16.380650049700     12.795871896000
      48   16  2  -0.35000     -0.697549035621     16.890135443600     12.624623414700
      49   17  1   0.70000      6.004688282760     13.551154420100    -14.096058077000
      50   17  2  -0.35000      5.014593472000     14.121112560100    -14.297204750700
      51   17  2  -0.35000      6.994783093520     12.981196280100    -13.894911403300
      52   18  1   0.70000     13.715656374600      7.926820011250    -19.186873417100
      53   18  2  -0.35000     13.349256943300      7.139883149650    -19.956341956200
      54   18  2  -0.35000     14.082055805800      8.713756872860    -18.417404878000
      55   19  1   0.70000    -11.140912165600    -15.136390681300      5.991704398740
      56   19  2  -0.35000    -10.270301227300    -15.458503168100      6.687319335260
      57   19  2  -0.35000    -12.011523103900    -14.814278194500      5.296089462220
      58   20  1   0.70000     -0.630246793882    -13.770187672500    -20.099679177800
      59   20  2  -0.35000     -1.284357726030    -14.634055716700    -20.513769615400
      60   20  2  -0.35000      0.023864138265    -12.906319628200    -19.685588740100
      61   21  1   0.70000     -0.012419344888      2.743618205320     13.194007375600
      62   21  2  -0.35000      0.485039847121      2.426571950310     12.195200074600
      63   21  2  -0.35000     -0.509878536896      3.060664460340     14.192814676600
      64   22  1   0.70000      5.674034900570     16.717648267200      1.311511771070
      65   22  2  -0.35000      5.531764863040     17.395999549800      0.381351153864
      66   22  2  -0.35000      5.816304938110     16.039296984600      2.241672388280
      67   23  1   0.70000     -6.800106384130     10.383859976500    -12.032091486700
      68   23  2  -0.35000     -6.358854914810      9.326549349470    -11.850456195900
      69   23  2  -0.35000     -7.241357853440     11.441170603500    -12.213726777500
      70   24  1   0.70000    -20.225847735100    -15.945597480200     16.249106902400
      71   24  2  -0.35000    -20.134997589300    -16.910321072600     15.611412115500
      72   24  2  -0.35000    -20.316697881000    -14.980873887800     16.886801689400
      73   25  1   0.70000     14.565597557400     -6.910338878790      0.080991236321
      74   25  2  -0.35000     15.240365207100     -6.777612071130     -0.853178027510
      75   25  2  -0.35000     13.890829907800     -7.043065686450      1.015160500150
      76   26  1   0.70000     -3.721215444780    -11.516726327800    -19.712910874000
      77   26  2  -0.35000     -3.905859531600    -12.517312208000    -20.269987581100
      78   26  2  -0.35000     -3.536571357960    -10.516140447600    -19.155834167000
      79   27  1   0.70000      5.256440928520    -16.172377945800    -16.752593964900
      80   27  2  -0.35000      6.294726212990    -16.136870138000    -16.236548556400
      81   27  2  -0.35000      4.218155644050    -16.207885753600    -17.268639373400
      82   28  1   0.70000    -15.425781128000     -7.268301627150    -12.689589976800
      83   28  2  -0.35000    -15.756331364300     -7.771294938340    -11.697957852400
      84   28  2  -0.35000    -15.095230891700     -6.765308315960    -13.681222101200
      85   29  1   0.70000     11.347935063000    -12.424240317200      1.882144000340
      86   29  2  -0.35000     10.609864844600    -12.497516983800      0.990245529166
      87   29  2  -0.35000     12.086005281300    -12.350963650600      2.774042471510
      88   30  1   0.70000      7.500943093000     17.503315038100    -10.317160303000
      89   30  2  -0.35000      6.367098525080     17.366658076300    -10.520436889500
      90   30  2  -0.35000      8.634787660920     17.639971999800    -10.113883716500
      91   31  1   0.70000      1.403325335630      6.769932158460    -11.931208978100
      92   31  2  -0.35000      1.035479679800      6.509407904710    -13.000047921400
      93   31  2  -0.35000      1.771170991470      7.030456412200    -10.862370034800
      94   32  1   0.70000     15.983848410100     19.544658838100     12.790127487600
      95   32  2  -0.35000     15.201430335300     20.143205448800     13.402633741400
      96   32  2  -0.35000     16.766266485000     18.946112227300     12.177621233900
      97   33  1   0.70000     -0.825374515742     19.838690261600      9.379024803700
      98   33  2  -0.35000      0.177838665144     20.413581317200      9.285946407420
      99   33  2  -0.35000     -1.828587696630     19.263799206000      9.472103199970
     100   34  1   0.70000     10.718391451000     -0.580878137731    -14.976669869700
     101   34  2  -0.35000     10.169419108100     -1.539723788810    -14.623336621600
     102   34  2  -0.35000     11.267363793800      0.377967513348    -15.330003117800
     103   35  1   0.70000     -7.136142704500     -9.986416386680     -4.576529729140
     104   35  2  -0.35000     -6.212115257790    -10.372995514100     -3.991440115500
     105   35  2  -0.35000     -8.060170151220     -9.599837259280     -5.161619342770
     106   36  1   0.70000     15.480540822700    -18.715687486100      6.017880754090
     107   36  2  -0.35000     15.533751678800    -17.568009417700      6.177892178570
     108   36  2  -0.35000     15.427329966500    -19.863365554600      5.857869329610
     109   37  1   0.70000     15.331501809000     18.462726302400     -5.798519848340
     110   37  2  -0.35000     15.016736802500     19.390893191100     -6.419027074290
     111   37  2  -0.35000     15.646266815500     17.534559413700     -5.178012622380
     112   38  1   0.70000    -10.908133227200     -9.210678137350    -10.690319692200
     113   38  2  -0.35000    -10.555883913100     -9.814553929900    -11.615984020100
     114   38  2  -0.35000    -11.260382541300     -8.606802344810     -9.764655364360
     115   39  1   0.70000    -16.718650077600    -18.204922331000      2.954041088560
     116   39  2  -0.35000    -15.748631352600    -18.565261073800      3.478273540420
     117   39  2  -0.35000    -17.688668802600    -17.844583588200      2.429808636700
     118   40  1   0.70000     13.559785736000     -9.533374304810     -9.225290151270
     119   40  2  -0.35000     13.873773561600     -9.337893414090     -8.125836256500
     120   40  2  -0.35000     13.245797910400     -9.728855195520    -10.324744046000
     121   41  1   0.70000     15.424146748800      6.979854774060    -10.174313521700
     122   41  2  -0.35000     15.551538484700      5.828006219300    -10.123164205800
     123   41  2  -0.35000     15.296755012900      8.131703328820    -10.225462837700
     124   42  1   0.70000     -2.099053204810      0.591623779858      3.540039772750
     125   42  2  -0.35000     -2.724939852930      1.563758827920      3.633951177920
     126   42  2  -0.35000     -1.473166556680     -0.380511268209      3.446128367590
     127   43  1   0.70000      7.140438776560     -7.453945673270      8.555664393310
     128   43  2  -0.35000      7.833338469300     -6.583318743250      8.227794351170
     129   43  2  -0.35000      6.447539083820     -8.324572603290      8.883534435440
     130   44  1   0.70000     12.374620448700      8.835567783150    -11.769839844000
     131   44  2  -0.35000     12.827043697200      7.801170012320    -12.036175076300
     132   44  2  -0.35000     11.922197200300      9.869965553980    -11.503504611700
     133   45  1   0.70000      8.802261752600    -14.225871045900     16.549714817400
     134   45  2  -0.35000      9.526658482360    -13.348994982100     16.321816273000
     135   45  2  -0.35000      8.077865022840    -15.102747109800     16.777613361800
     136   46  1   0.70000    -15.500733471400      5.811743635020     12.861289027800
     137   46  2  -0.35000    -15.675983033400      5.391880932550     13.928342401400
     138   46  2  -0.35000    -15.325483909500      6.231606337500     11.794235654200
     139   47  1   0.70000     -0.893630009358     20.519629220200     -9.855992159140
     140   47  2  -0.35000     -0.512670303570     19.424325194200     -9.828085293360
     141   47  2  -0.35000     -1.274589715150     21.614933246253     -9.883899024920
     142   48  1   0.70000    -15.509657763500      5.305560978550     -3.785357312110
     143   48  2  -0.35000    -14.717761956900      4.470252908500     -3.929445686310
     144   48  2  -0.35000    -16.301553570100      6.140869048610     -3.641268937910
     145   49  1   0.70000    -16.120419711700     19.826226594000     -7.477479387860
     146   49  2  -0.35000    -16.922559534200     19.037812284700     -7.193622765580
     147   49  2  -0.35000    -15.318279889200     20.614640903353     -7.761336010130
     148   50  1   0.70000      1.788769794970     18.637223870200     19.255331483100
     149   50  2  -0.35000      1.497457964110     19.068468692400     20.292040372100
     150   50  2  -0.35000      2.080081625840     18.205979048000     18.218622594100
     151   51  1   0.70000     17.331462128100     -7.758924834530      8.168785402480
     152   51  2  -0.35000     16.686625202600     -6.795252873460      8.202277057510
     153   51  2  -0.35000     17.976299053600     -8.722596795600      8.135293747450
     154   52  1   0.70000     -9.379944562220      8.732879268900    -17.890619714900
     155   52  2  -0.35000     -9.971475424930      9.394112869110    -17.143316988800
     156   52  2  -0.35000     -8.788413699520      8.071645668680    -18.637922441000
     157   53  1   0.70000      3.198821083100     -4.817628006220     -0.478555448053
     158   53  2  -0.35000      3.491700042740     -4.531071587390      0.606666802835
     159   53  2  -0.35000      2.905942123450     -5.104184425050     -1.563777698940
     160   54  1   0.70000     -6.693156306150     10.691078912800     20.525864382600
     161   54  2  -0.35000     -7.350838743640     10.126128108900     19.755225426600
     162   54  2  -0.35000     -6.035473868670     11.256029716800     21.296503338553
     163   55  1   0.70000    -11.102143946300      1.370304031610     -9.341926104740
     164   55  2  -0.35000    -11.106686141200      0.593109374191     -8.480794388370
     165   55  2  -0.35000    -11.097601751400      2.147498689030    -10.203057821100
     166   56  1   0.70000    -19.783606064600     18.685020528100    -15.956227192400
     167   56  2  -0.35000    -20.719947737953     19.255382814500    -16.335108615700
     168   56  2  -0.35000    -18.847264391200     18.114658241700    -15.577345769100
     169   57  1   0.70000    -15.015593323200     11.917194002700      6.091823108600
     170   57  2  -0.35000    -15.926969542900     11.199724366800      6.107012181810
     171   57  2  -0.35000    -14.104217103600     12.634663638500      6.076634035400
     172   58  1   0.70000      0.427069716949     -4.699331961690    -17.152826921900
     173   58  2  -0.35000      1.076469582820     -4.707927617950    -16.191678687300
     174   58  2  -0.35000     -0.222330148923     -4.690736305430    -18.113975156500
     175   59  1   0.70000     11.577154991800     14.830940651300    -13.559285537800
     176   59  2  -0.35000     11.785215167500     15.654442217700    -14.349321064500
     177   59  2  -0.35000     11.369094816000     14.007439084900    -12.769250011100
     178   60  1   0.70000    -16.214016582500     10.331219565100     -7.375860967720
     179   60  2  -0.35000    -16.164630002700      9.280485465390     -7.864858736080
     180   60  2  -0.35000    -16.263403162400     11.381953664800     -6.886863199370
     181   61  1   0.70000     18.718886844100    -18.394182296600     -8.132319537050
     182   61  2  -0.35000     19.530645229900    -18.298591298800     -7.309209165200
     183   61  2  -0.35000     17.907128458400    -18.489773294500     -8.955429908900
     184   62  1   0.70000     -3.408583844670     11.714275871600      7.962062491030
     185   62  2  -0.35000     -4.034878168830     10.740668173900      8.035842369270
     186   62  2  -0.35000     -2.782289520510     12.687883569400      7.888282612790
     187   63  1   0.70000    -18.827566164800    -15.713814124700    -17.543081225200
     188   63  2  -0.35000    -18.950489031000    -15.035207630300    -18.475810121900
     189   63  2  -0.35000    -18.704643298700    -16.392420619100    -16.610352328600
     190   64  1   0.70000      1.517402155860    -18.625154481400      3.851315061370
     191   64  2  -0.35000      1.080205281980    -17.622588567100      3.464894977870
     192   64  2  -0.35000      1.954599029750    -19.627720395700      4.237735144870
     193   65  1   0.70000     -8.582023049310    -10.036316192700     -0.849312529674
     194   65  2  -0.35000     -7.802069174070     -9.471247248690     -0.202807277580
     195   65  2  -0.35000     -9.361976924550    -10.601385136800     -1.495817781770
     196   66  1   0.70000     -7.283778567480     -7.564223337770      3.549037277950
     197   66  2  -0.35000     -6.427410562320     -7.064445002430      2.946994542530
     198   66  2  -0.35000     -8.140146572630     -8.064001673110      4.151080013360
     199   67  1   0.70000    -11.146227504200     -5.001348192040      7.332539565280
     200   67  2  -0.35000    -10.843009941900     -4.962902245330      6.213530620240
     201   67  2  -0.35000    -11.449445066500     -5.039794138750      8.451548510330
     202   68  1   0.70000    -15.126939674300     -9.995337444610     -6.945193215180
     203   68  2  -0.35000    -15.547209712100     -9.534386973770     -7.923200249280
     204   68  2  -0.35000    -14.706669636500    -10.456287915500     -5.967186181090
     205   69  1   0.70000    -14.199863221700      1.151821078040     14.796792347300
     206   69  2  -0.35000    -14.338330079700      2.173559749760     15.328278015900
     207   69  2  -0.35000    -14.061396363600      0.130082406322     14.265306678700
     208   70  1   0.70000     -2.938389202690    -15.807111799500     10.295504953300
     209   70  2  -0.35000     -3.030012910160    -16.459120929100     11.250538560700
     210   70  2  -0.35000     -2.846765495220    -15.155102670000      9.340471345960
     211   71  1   0.70000     -8.002036457930      3.808678927010     -4.543264843260
     212   71  2  -0.35000     -7.998753906350      2.848207569610     -5.193713916180
     213   71  2  -0.35000     -8.005319009500      4.769150284410     -3.892815770340
     214   72  1   0.70000     -9.781406029590    -11.937378865400      2.438955641570
     215   72  2  -0.35000     -9.661492576310    -11.273208998800      3.382406303800
     216   72  2  -0.35000     -9.901319482870    -12.601548732000      1.495504979340
     217   73  1   0.70000     18.371948968100     -8.142218315080    -17.254798804700
     218   73  2  -0.35000     18.240633231100     -7.074355874590    -17.688418436900
     219   73  2  -0.35000     18.503264705100     -9.210080755570    -16.821179172500
     220   74  1   0.70000     18.073066053900     -0.601896626156    -13.914616245000
     221   74  2  -0.35000     18.855872286000     -1.366576779660    -14.299426153700
     222   74  2  -0.35000     17.290259821800      0.162783527344    -13.529806336200
     223   75  1   0.70000      8.577458955600     -8.859794208980     -2.172726361110
     224   75  2  -0.35000      8.809160089730     -8.298135951740     -1.184569194210
     225   75  2  -0.35000      8.345757821480     -9.421452466230     -3.160883528020
     226   76  1   0.70000     18.928029518800     12.739014453900      3.862268342120
     227   76  2  -0.35000     19.728682851800     13.269498770900      4.512760947680
     228   76  2  -0.35000     18.127376185900     12.208530137000      3.211775736560
     229   77  1   0.70000      9.693748781460     12.216845391000     11.822353264000
     230   77  2  -0.35000      9.324211528740     12.528698020100     10.767938660300
     231   77  2  -0.35000     10.063286034200     11.904992761800     12.876767867700
     232   78  1   0.70000    -12.120111689000     12.778971413600    -15.574672081200
     233   78  2  -0.35000    -11.962467615600     11.787862461500    -16.156437834000
     234   78  2  -0.35000    -12.277755762400     13.770080365800    -14.992906328300
     235   79  1   0.70000     13.031386227300    -14.320656107300     12.120894441800
     236   79  2  -0.35000     14.061906369600    -14.261349804300     12.650149577700
     237   79  2  -0.35000     12.000866085100    -14.379962410300     11.591639305900
     238   80  1   0.70000     -6.947798033480    -11.775230257300     -8.994233238100
     239   80  2  -0.35000     -5.884485060660    -12.085800570700     -9.338488379250
     240   80  2  -0.35000     -8.011111006310    -11.464659943800     -8.649978096950
     241   81  1   0.70000     19.553936404800     -9.212324258570     13.256038332300
     242   81  2  -0.35000     19.070337370000     -8.812513556490     12.280393224600
     243   81  2  -0.35000     20.037535439600     -9.612134960640     14.231683439900
     244   82  1   0.70000     17.389686050200    -15.071136247900     17.616478431400
     245   82  2  -0.35000     18.126701690100    -15.653351133000     18.297238135000
     246   82  2  -0.35000     16.652670410200    -14.488921362900     16.935718727800
     247   83  1   0.70000      6.771952759190     10.326367953900      9.249947128290
     248   83  2  -0.35000      7.008801607660     10.579699578600      8.143002815820
     249   83  2  -0.35000      6.535103910710     10.073036329200     10.356891440800
     250   84  1   0.70000     16.373643057300      4.001660034830     19.796368127200
     251   84  2  -0.35000     16.351363978500      3.978699155100     18.636809400500
     252   84  2  -0.35000     16.395922136100      4.024620914550     20.955926853953
     253   85  1   0.70000     -8.266585595370      6.745370302030      9.651284036900
     254   85  2  -0.35000     -7.189322775940      6.336077279110      9.518679213260
     255   85  2  -0.35000     -9.343848414810      7.154663324950      9.783888860550
     256   86  1   0.70000      4.043221709220      5.144779895380    -17.016606173600
     257   86  2  -0.35000      4.848284354420      5.346167409800    -17.827110465000
     258   86  2  -0.35000      3.238159064010      4.943392380960    -16.206101882200
     259   87  1   0.70000     11.002182807400    -18.343438055000     12.989333894400
     260   87  2  -0.35000     10.121339792200    -17.934436384100     13.623710135900
     261   87  2  -0.35000     11.883025822600    -18.752439725900     12.354957652900
     262   88  1   0.70000     -6.173050731130     -1.590321278670     -4.137703962980
     263   88  2  -0.35000     -6.288760752450     -1.289353609680     -5.251988331170
     264   88  2  -0.35000     -6.057340709800     -1.891288947660     -3.023419594800
     265   89  1   0.70000    -13.441449471200      5.403755317510     -7.722127243000
     266   89  2  -0.35000    -13.117591758700      5.976090549150     -6.766539170310
     267   89  2  -0.35000    -13.765307183700      4.831420085880     -8.677715315690
     268   90  1   0.70000     -0.843991414906    -10.954866175100     18.556083407200
     269   90  2  -0.35000      0.130400958703    -10.597391528100     19.074129137800
     270   90  2  -0.35000     -1.818383788510    -11.312340822200     18.038037676700
     271   91  1   0.70000     -8.594771423720    -12.581043086000     16.656550257900
     272   91  2  -0.35000     -7.764142472990    -13.259557485000     16.214652355100
     273   91  2  -0.35000     -9.425400374450    -11.902528687000     17.098448160700
     274   92  1   0.70000    -19.978711489400     13.369962233900     -6.650355911230
     275   92  2  -0.35000    -20.558983716253     13.607674535700     -5.674457861070
     276   92  2  -0.35000    -19.398439262500     13.132249932000     -7.626253961390
     277   93  1   0.70000      8.791688025920    -16.108001020200    -11.205962636900
     278   93  2  -0.35000      9.152675427050    -15.219592215400    -11.858663097900
     279   93  2  -0.35000      8.430700624780    -16.996409825000    -10.553262175900
     280   94  1   0.70000     -5.721745146790      5.079886014800    -13.520678213400
     281   94  2  -0.35000     -6.360776093360      5.838216491140    -12.918868992800
     282   94  2  -0.35000     -5.082714200220      4.321555538460    -14.122487434000
     283   95  1   0.70000     -3.055814179350     -5.037760945010     -7.121519043350
     284   95  2  -0.35000     -2.504575925350     -6.054565210030     -7.210093723510
     285   95  2  -0.35000     -3.607052433340     -4.020956679990     -7.032944363190
     286   96  1   0.70000      9.699225402220     -1.208320348490      5.547949158360
     287   96  2  -0.35000      9.468347110750     -2.344955963410      5.566782464500
     288   96  2  -0.35000      9.930103693690     -0.071684733571      5.529115852230
     289   97  1   0.70000     17.696380247400      9.210115960890     11.354543632300
     290   97  2  -0.35000     18.119524629700      8.622821651260     10.448103217500
     291   97  2  -0.35000     17.273235865000      9.797410270530     12.260984047100
     292   98  1   0.70000     19.859458535900     20.285627055600     -1.377964028610
     293   98  2  -0.35000     18.976834548600     21.004926250353     -1.599737709450
     294   98  2  -0.35000     20.742082523253     19.566327860900     -1.156190347770
     295   99  1   0.70000      6.180460022800      2.107280263940      4.210319492510
     296   99  2  -0.35000      5.023601871300      2.175225912100      4.158719044740
     297   99  2  -0.35000      7.337318174300      2.039334615780      4.261919940280
     298  100  1   0.70000     19.989515384100      2.496520245260     18.222858177100
     299  100  2  -0.35000     20.297992008200      1.418414919700     18.519726968600
     300  100  2  -0.35000     19.681038760000      3.574625570830     17.925989385600
     301  101  1   0.70000    -13.477996287800      5.064169896870    -12.629692127700
     302  101  2  -0.35000    -14.543262586700      5.522571879420    -12.603704924600
     303  101  2  -0.35000    -12.412729988800      4.605767914330    -12.655679330700
     304  102  1   0.70000     -6.237287273860    -15.287527470200     18.807058739500
     305  102  2  -0.35000     -7.156369292040    -14.661960807900     18.476068415200
     306  102  2  -0.35000     -5.318205255670    -15.913094132600     19.138049063800
     307  103  1   0.70000     14.642817777000     -6.411123440170     -4.056578105390
     308  103  2  -0.35000     13.641251185900     -5.858165727500     -4.248156109200
     309  103  2  -0.35000     15.644384368200     -6.964081152840     -3.865000101580
     310  104  1   0.70000      0.436250095544    -15.756081824300    -14.388139483900
     311  104  2  -0.35000     -0.634907376536    -16.132344611700    -14.626147855300
     312  104  2  -0.35000      1.507407567620    -15.379819037000    -14.150131112500
     313  105  1   0.70000      5.645507132210     11.726653329100     -0.433934154836
     314  105  2  -0.35000      6.428459079710     12.440938554300     -0.905509032203
     315  105  2  -0.35000      4.862555184710     11.012368103900      0.037640722532
     316  106  1   0.70000     13.681244615500    -13.031909987900      8.916498882870
     317  106  2  -0.35000     13.586869635400    -11.880601791600      8.810750122890
     318  106  2  -0.35000     13.775619595600    -14.183218184200      9.022247642850
     319  107  1   0.70000      2.479243504790     -2.542962561950    -20.199785284200
     320  107  2  -0.35000      2.327322870470     -2.933060728290    -19.117961111100
     321  107  2  -0.35000      2.631164139100     -2.152864395610    -21.281609457253
     322  108  1   0.70000     16.960565284800      3.568745648220      8.422670680760
     323  108  2  -0.35000     17.317635529800      2.969635327810      7.495757705300
     324  108  2  -0.35000     16.603495039700      4.167855968640      9.349583656210
     325  109  1   0.70000     -0.052198948673     -8.930093195770     -9.709027686390
     326  109  2  -0.35000      0.192227857990    -10.023233676000     -9.407532368390
     327  109  2  -0.35000     -0.296625755336     -7.836952715590    -10.010523004400
     328  110  1   0.70000      1.738643692990     13.111528616400      6.585615984590
     329  110  2  -0.35000      2.265541365000     14.125748546800      6.783950994360
     330  110  2  -0.35000      1.211746020980     12.097308686100      6.387280974830
     331  111  1   0.70000     -2.204660313390     -6.992218323830     14.414896505100
     332  111  2  -0.35000     -2.804940766550     -6.579325126930     15.317549586600
     333  111  2  -0.35000     -1.604379860220     -7.405111520730     13.512243423600
     334  112  1   0.70000     14.257376008100    -13.473915838000      4.643971661570
     335  112  2  -0.35000     13.728896709300    -14.333989929000      4.072497962610
     336  112  2  -0.35000     14.785855307000    -12.613841747000      5.215445360530
     337  113  1   0.70000      3.761104079300      4.839755441920      7.249328120160
     338  113  2  -0.35000      3.072661100180      5.769510397110      7.334192646200
     339  113  2  -0.35000      4.449547058430      3.910000486730      7.164463594110
     340  114  1   0.70000      5.542015782680      0.385595478617      8.002341264030