LAMMPS Atom File

         3000 atoms
         2000 bonds
         1000 angles
           0 dihedrals
           0 impropers

           2 atom types
           1 bond types
           1 angle types

         0.0  46.0539317128 xlo xhi
         0.0  46.0539317128 ylo yhi
         0.0  46.0539317128 zlo zhi

Masses

         1   12.01070
         2   15.99990

Atoms

       1    1  1   0.70000    -10.801187622400     16.699080926500    -18.246293232700
       2    1  2  -0.35000    -11.035036263200     17.811481851100    -18.477548494500
       3    1  2  -0.35000    -10.567338981600     15.586680001900    -18.015037970900
       4    2  1   0.70000     18.952063851600      6.731577809380     22.225190985800
       5    2  2  -0.35000     18.460291779400      5.925190869920     22.898615319200
       6    2  2  -0.35000     19.443835923800      7.537964748840     21.551766652300
       7    3  1   0.70000      6.710054997770     17.802795770100     -0.455528114984
       8    3  2  -0.35000      6.126193858720     18.627652675300     -1.025016706820
       9    3  2  -0.35000      7.293916136820     16.977938864900      0.113960476852
      10    4  1   0.70000     -2.190365856110     14.144037865700     22.237910234300
      11    4  2  -0.35000     -1.900714541070     14.768424625300     21.304184744600
      12    4  2  -0.35000     -2.480017171150     13.519651106100     23.171635724016
      13    5  1   0.70000    -20.090976116100     15.236131348200     -9.137192573850
      14    5  2  -0.35000    -20.928506182900     14.733769304900     -8.511272639240
      15    5  2  -0.35000    -19.253446049200     15.738493391600     -9.763112508460
      16    6  1   0.70000      8.025416152400      0.753527425779     -9.624543598140
      17    6  2  -0.35000      8.501757385980      0.220643462705     -8.710905972440
      18    6  2  -0.35000      7.549074918820      1.286411388850    -10.538181223800
      19    7  1   0.70000      2.620579531830    -17.372966556700     18.578406414800
      20    7  2  -0.35000      2.723384449390    -17.027597974200     19.681017720300
      21    7  2  -0.35000      2.517774614270    -17.718335139200     17.475795109200
      22    8  1   0.70000     -2.107145325730      0.582238991940      8.549413160660
      23    8  2  -0.35000     -2.014865378840     -0.572427711476      8.487532505980
      24    8  2  -0.35000     -2.199425272620      1.736905695360      8.611293815340
      25    9  1   0.70000      3.171212403320    -11.840277368400     20.860097538600
      26    9  2  -0.35000      3.655167745700    -10.907852365700     21.352002855700
      27    9  2  -0.35000      2.687257060950    -12.772702371100     20.368192221500
      28   10  1   0.70000    -10.847234901900     21.406559857700      1.686124135110
      29   10  2  -0.35000    -10.507238019800     20.574142323100      0.953264552233
      30   10  2  -0.35000    -11.187231784000     22.238977392300      2.418983717980
      31   11  1   0.70000     -6.716103509210     17.124396224300      5.349944788050
      32   11  2  -0.35000     -6.248017918790     16.617369059400      6.282371371840
      33   11  2  -0.35000     -7.184189099630     17.631423389100      4.417518204260
      34   12  1   0.70000     14.649859554200     -0.143711966948      2.827793773280
      35   12  2  -0.35000     14.520144787200     -1.286751679140      2.976905461480
      36   12  2  -0.35000     14.779574321200      0.999327745247      2.678682085080
      37   13  1   0.70000    -18.414456671500     -7.641812941810     17.349271085600
      38   13  2  -0.35000    -19.174927900500     -8.055609924360     18.121317436000
      39   13  2  -0.35000    -17.653985442600     -7.228015959260     16.577224735200
      40   14  1   0.70000     17.418632860200     12.452387743700    -16.196205309800
      41   14  2  -0.35000     17.859901361400     13.397172810100    -15.688009197900
      42   14  2  -0.35000     16.977364358900     11.507602677400    -16.704401421700
      43   15  1   0.70000    -10.031311359600     14.784800418200     19.212345340300
      44   15  2  -0.35000     -9.254388928880     15.465846509600     19.739761455000
      45   15  2  -0.35000    -10.808233790300     14.103754326700     18.684929225600
      46   16  1   0.70000      0.416669792175     16.742171428000     17.424824525200
      47   16  2  -0.35000     -0.003822767925     17.587755980700     16.751197943900
      48   16  2  -0.35000      0.837162352275     15.896586875200     18.098451106600
      49   17  1   0.70000      1.887792020230    -20.490287178900    -18.192200701400
      50   17  2  -0.35000      1.150013779860    -20.926184324200    -18.974042722900
      51   17  2  -0.35000      2.625570260610    -20.054390033500    -17.410358679800
      52   18  1   0.70000     22.248823269100      6.299179917750     21.226504313700
      53   18  2  -0.35000     23.190621484216      6.950373080460     21.412417160900
      54   18  2  -0.35000     21.307025053900      5.647986755030     21.040591466500
      55   19  1   0.70000    -10.194519957600    -20.020981332800      6.693445702630
      56   19  2  -0.35000    -11.008269075400    -19.590717980900      5.987552069460
      57   19  2  -0.35000     -9.380770839880    -20.451244684700      7.399339335800
      58   20  1   0.70000     -3.934193893800    -18.516407288900    -20.124687977100
      59   20  2  -0.35000     -4.756126924300    -19.080930085900    -19.531948485400
      60   20  2  -0.35000     -3.112260863310    -17.951884491900    -20.717427468900
      61   21  1   0.70000     -1.624254710110     -0.714915629252     20.892150296100
      62   21  2  -0.35000     -2.731555774510     -1.021570276460     20.732628259600
      63   21  2  -0.35000     -0.516953645711     -0.408260982041     21.051672332600
      64   22  1   0.70000      0.431565658886     -4.463040919720     -4.232262565090
      65   22  2  -0.35000      0.248772536710     -5.034402530270     -3.239421900900
      66   22  2  -0.35000      0.614358781062     -3.891679309170     -5.225103229280
      67   23  1   0.70000      6.526342003850     19.733344042200      2.977833483480
      68   23  2  -0.35000      7.681746958400     19.835242665400      2.993835408080
      69   23  2  -0.35000      5.370937049310     19.631445418900      2.961831558880
      70   24  1   0.70000    -11.146041368700      8.526313765950    -19.620041387100
      71   24  2  -0.35000    -10.658352061000      9.562268430720    -19.805936711600
      72   24  2  -0.35000    -11.633730676400      7.490359101180    -19.434146062600
      73   25  1   0.70000     21.154935933100    -20.439309025800     19.705144096800
      74   25  2  -0.35000     22.169812715400    -19.990823778500     20.043502042800
      75   25  2  -0.35000     20.140059150700    -20.887794273000     19.366786150700
      76   26  1   0.70000     16.545001600300     -5.486834704530     -1.230592440700
      77   26  2  -0.35000     16.299278808600     -5.726384452160     -0.122514723190
      78   26  2  -0.35000     16.790724392000     -5.247284956900     -2.338670158220
      79   27  1   0.70000     19.258918498400     16.294507228300     19.625519707500
      80   27  2  -0.35000     19.889417174000     15.323411713200     19.554492103600
      81   27  2  -0.35000     18.628419822800     17.265602743400     19.696547311400
      82   28  1   0.70000     -3.629641579500     -8.046911931430    -18.882832272100
      83   28  2  -0.35000     -3.612498232770     -7.004336397840    -18.374558367200
      84   28  2  -0.35000     -3.646784926240     -9.089487465010    -19.391106177100
      85   29  1   0.70000      8.877008647250    -16.646035746400    -18.826038639300
      86   29  2  -0.35000      8.742321927440    -16.582374289600    -19.976432792000
      87   29  2  -0.35000      9.011695367060    -16.709697203200    -17.675644486700
      88   30  1   0.70000    -16.670710084300     -6.971751331420    -13.405981796600
      89   30  2  -0.35000    -16.656282169800     -7.776232387450    -12.570396932100
      90   30  2  -0.35000    -16.685137998800     -6.167270275390    -14.241566661100
      91   31  1   0.70000     12.937097402900    -15.880206482400      3.606773735980
      92   31  2  -0.35000     11.831214173700    -16.134335136900      3.365856923790
      93   31  2  -0.35000     14.042980632000    -15.626077827900      3.847690548180
      94   32  1   0.70000      6.514320792400     22.013112815500    -13.928797485900
      95   32  2  -0.35000      5.947745302570     21.035022118700    -13.668162102200
      96   32  2  -0.35000      7.080896282220     22.991203512200    -14.189432869700
      97   33  1   0.70000      8.537558516790      9.870640510810     -7.210538667320
      98   33  2  -0.35000      8.512615285570      9.467394377290     -8.297907229960
      99   33  2  -0.35000      8.562501748000     10.273886644300     -6.123170104680
     100   34  1   0.70000     13.669536322900    -18.882373751200     13.818591569400
     101   34  2  -0.35000     13.192900380200    -19.913608809000     14.053053578300
     102   34  2  -0.35000     14.146172265700    -17.851138693400     13.584129560400
     103   35  1   0.70000     -2.846577552350    -20.427149056800     12.243116433300
     104   35  2  -0.35000     -3.976919036510    -20.575355541600     12.457506188300
     105   35  2  -0.35000     -1.716236068180    -20.278942572000     12.028726678400
     106   36  1   0.70000     12.825535258000     -7.372201740830    -20.406410369100
     107   36  2  -0.35000     12.925328846900     -8.455276010160    -20.003184171100
     108   36  2  -0.35000     12.725741669200     -6.289127471490    -20.809636567100
     109   37  1   0.70000     -8.830490863660    -12.485748464000     -1.914389697460
     110   37  2  -0.35000     -7.779889381620    -12.074252230700     -2.183661634090
     111   37  2  -0.35000     -9.881092345710    -12.897244697400     -1.645117760830
     112   38  1   0.70000     16.800493679200    -21.931035619800      3.004766996350
     113   38  2  -0.35000     16.660052380600    -22.330133626400      4.084858206750
     114   38  2  -0.35000     16.940934977700    -21.531937613200      1.924675785940
     115   39  1   0.70000     14.361801712200     17.860732520000     -7.200078740820
     116   39  2  -0.35000     14.122227317800     16.861942246500     -6.660984965190
     117   39  2  -0.35000     14.601376106700     18.859522793600     -7.739172516460
     118   40  1   0.70000    -15.926459236900    -14.231883216000    -14.132525833600
     119   40  2  -0.35000    -16.532946406200    -14.836407194900    -13.350014445600
     120   40  2  -0.35000    -15.319972067600    -13.627359237100    -14.915037221700
     121   41  1   0.70000    -14.560800661800    -21.343919495500      5.286896578320
     122   41  2  -0.35000    -14.397525287700    -20.768924389200      4.292752836170
     123   41  2  -0.35000    -14.724076035900    -21.918914601700      6.281040320460
     124   42  1   0.70000     14.928334803800     -5.907165853930    -11.403393117800
     125   42  2  -0.35000     15.102242523300     -5.899405618730    -12.550256616200
     126   42  2  -0.35000     14.754427084400     -5.914926089130    -10.256529619500
     127   43  1   0.70000     20.006370076100      8.110903910140     -6.556163629820
     128   43  2  -0.35000     19.087552230000      7.890974131700     -5.883107422480
     129   43  2  -0.35000     20.925187922200      8.330833688590     -7.229219837170
     130   44  1   0.70000     -1.615431996510      0.478196079247      1.612443732030
     131   44  2  -0.35000     -0.948494099430      1.184047637000      0.977961722948
     132   44  2  -0.35000     -2.282369893600     -0.227655478506      2.246925741120
     133   45  1   0.70000      8.194619924330     -8.849793294300      6.404673704250
     134   45  2  -0.35000      8.923664569830     -8.178812433880      5.801450205190
     135   45  2  -0.35000      7.465575278830     -9.520774154710      7.007897203320
     136   46  1   0.70000     15.337251197400      9.776626368280    -19.230307122200
     137   46  2  -0.35000     15.466790633300      8.731268948710    -18.744460027000
     138   46  2  -0.35000     15.207711761600     10.821983787800    -19.716154217400
     139   47  1   0.70000      6.409963081430    -16.215349851700     19.401183881400
     140   47  2  -0.35000      6.837401912540    -16.823864892700     20.291467819500
     141   47  2  -0.35000      5.982524250330    -15.606834810600     18.510899943300
     142   48  1   0.70000      0.721189923028      4.598221866730    -22.080395873100
     143   48  2  -0.35000      1.301013008630      4.844966288510    -21.106474736800
     144   48  2  -0.35000      0.141366837430      4.351477444940    -23.054317009416
     145   49  1   0.70000    -18.953684293900      9.337255786690     14.506240409700
     146   49  2  -0.35000    -19.959123198000      8.780349743910     14.349561535900
     147   49  2  -0.35000    -17.948245389700      9.894161829480     14.662919283500
     148   50  1   0.70000     -1.834486504550     21.179201315300    -11.075453503900
     149   50  2  -0.35000     -2.927156736190     20.823322719800    -11.233637542700
     150   50  2  -0.35000     -0.741816272907     21.535079910800    -10.917269465100
     151   51  1   0.70000    -16.027438418100      4.287724509430     -1.169144770570
     152   51  2  -0.35000    -16.822324602000      4.525889161620     -1.979720833100
     153   51  2  -0.35000    -15.232552234300      4.049559857240     -0.358568708050
     154   52  1   0.70000    -16.095371237600     21.816092787100     -4.509570624980
     155   52  2  -0.35000    -17.089422098300     22.208400333000     -4.058396960200
     156   52  2  -0.35000    -15.101320376900     21.423785241200     -4.960744289750
     157   53  1   0.70000      1.710448888130    -20.828161049100     17.622236587400
     158   53  2  -0.35000      1.173912338050    -20.597700414900     18.624542142800
     159   53  2  -0.35000      2.246985438200    -21.058621683200     16.619931031900
     160   54  1   0.70000     16.381278932000    -12.100571742200      7.610952253880
     161   54  2  -0.35000     16.202905525200    -12.108683599100      6.464777256100
     162   54  2  -0.35000     16.559652338800    -12.092459885400      8.757127251660
     163   55  1   0.70000     16.456156155200      6.569592284340    -16.264412275100
     164   55  2  -0.35000     16.042750314600      5.867397179400    -17.090013659200
     165   55  2  -0.35000     16.869561995800      7.271787389280    -15.438810890900
     166   56  1   0.70000     -5.593051222220     12.056490051900    -19.839307214400
     167   56  2  -0.35000     -5.181625577230     11.480277592400    -20.758169630800
     168   56  2  -0.35000     -6.004476867210     12.632702511400    -18.920444798100
     169   57  1   0.70000      3.204465070500     -8.726522094770     -2.412536292930
     170   57  2  -0.35000      2.086904947000     -8.555245581420     -2.672004453440
     171   57  2  -0.35000      4.322025194010     -8.897798608110     -2.153068132420
     172   58  1   0.70000    -12.923099324600     12.819669180900     21.244630748600
     173   58  2  -0.35000    -12.009227136800     13.508088830600     21.053539120600
     174   58  2  -0.35000    -13.836971512500     12.131249531300     21.435722376700
     175   59  1   0.70000    -14.714598714400      0.639959727206    -10.594868509000
     176   59  2  -0.35000    -13.729221403500      1.133968403250    -10.233500298900
     177   59  2  -0.35000    -15.699976025200      0.145951051162    -10.956236719000
     178   60  1   0.70000     -9.144551695880     11.564652262700     19.551757784400
     179   60  2  -0.35000     -8.349024175690     12.400515077000     19.670371950100
     180   60  2  -0.35000     -9.940079216070     10.728789448500     19.433143618600
     181   61  1   0.70000    -20.009512863400     23.006561321100    -18.280638529600
     182   61  2  -0.35000    -20.038172925100     23.260730682116    -17.149189663400
     183   61  2  -0.35000    -19.980852801600     22.752391960000    -19.412087395800
     184   62  1   0.70000    -15.267561360100     11.351526495200      3.173230645870
     185   62  2  -0.35000    -15.303362848500     11.686636729600      4.283194331860
     186   62  2  -0.35000    -15.231759871700     11.016416260800      2.063266959880
     187   63  1   0.70000     -0.752940109982    -10.187371392200    -20.934183989700
     188   63  2  -0.35000     -0.844721170180     -9.063187864400    -20.663282470900
     189   63  2  -0.35000     -0.661159049784    -11.311554919900    -21.205085508500
     190   64  1   0.70000     13.201805688900     12.946002272900    -19.294889996700
     191   64  2  -0.35000     12.832630113800     12.635485397500    -20.349825380900
     192   64  2  -0.35000     13.570981264000     13.256519148200    -18.239954612500
     193   65  1   0.70000    -19.675120942400      9.123860785830     -8.113848680780
     194   65  2  -0.35000    -20.032955040700      8.114468997820     -7.668109994490
     195   65  2  -0.35000    -19.317286844200     10.133252573800     -8.559587367070
     196   66  1   0.70000    -22.177276638400    -20.348789012200     -5.579499197690
     197   66  2  -0.35000    -21.734026636900    -20.247852356600     -6.646711092160
     198   66  2  -0.35000    -22.620526639900    -20.449725667900     -4.512287303220
     199   67  1   0.70000     -5.211080637830      9.796305571300      7.937824383770
     200   67  2  -0.35000     -5.215095021310      8.650938685350      7.754198183890
     201   67  2  -0.35000     -5.207066254340     10.941672457300      8.121450583640
     202   68  1   0.70000    -22.535107082700    -21.300360529600    -20.581641233900
     203   68  2  -0.35000    -23.355659404216    -21.382218502100    -19.765802303800
     204   68  2  -0.35000    -21.714554761100    -21.218502557100    -21.397480164000
     205   69  1   0.70000      2.436421110970    -17.227309059900      7.020063995810
     206   69  2  -0.35000      2.280400918320    -17.786842465300      8.024145699480
     207   69  2  -0.35000      2.592441303620    -16.667775654400      6.015982292140
     208   70  1   0.70000    -10.811785295500    -13.585984317100      2.975443067730
     209   70  2  -0.35000    -10.842700875600    -13.327869853400      4.105939043200
     210   70  2  -0.35000    -10.780869715400    -13.844098780800      1.844947092270
     211   71  1   0.70000     -7.458329577570    -10.883672248100      5.981609155920
     212   71  2  -0.35000     -7.575178486040    -11.791331780200      5.268797465240
     213   71  2  -0.35000     -7.341480669100     -9.976012715950      6.694420846600
     214   72  1   0.70000    -14.707593638400     -4.853816650430     10.467029949900
     215   72  2  -0.35000    -13.614341031400     -5.179839011150     10.677049371700
     216   72  2  -0.35000    -15.800846245500     -4.527794289710     10.257010528000
     217   73  1   0.70000    -21.295736282800     -3.982690327320     -5.596878882060
     218   73  2  -0.35000    -21.853437475000     -2.965555211660     -5.599231907980
     219   73  2  -0.35000    -20.738035090600     -4.999825442970     -5.594525856140
     220   74  1   0.70000    -16.303136178400      5.456111148260     17.489010519800
     221   74  2  -0.35000    -16.898791138700      4.947180752360     18.344454860700
     222   74  2  -0.35000    -15.707481218100      5.965041544150     16.633566178900
     223   75  1   0.70000     -6.830060039380    -17.977052315200      4.299556289620
     224   75  2  -0.35000     -6.237503060640    -17.639665065100      3.361128844140
     225   75  2  -0.35000     -7.422617018120    -18.314439565300      5.237983735090
     226   76  1   0.70000     -9.502918524130      6.251641817100    -10.492100793400
     227   76  2  -0.35000     -8.355567524450      6.101946169290    -10.409778885200
     228   76  2  -0.35000    -10.650269523800      6.401337464900    -10.574422701600
     229   77  1   0.70000     -8.142024741360    -13.957828858800      7.094771160640
     230   77  2  -0.35000     -7.663205883240    -13.313502543800      7.932133746880
     231   77  2  -0.35000     -8.620843599480    -14.602155173900      6.257408574400
     232   78  1   0.70000    -21.127830816100     -4.088057968140    -20.994774039500
     233   78  2  -0.35000    -20.270125204700     -3.792839147850    -20.271733976900
     234   78  2  -0.35000    -21.985536427600     -4.383276788440    -21.717814102200
     235   79  1   0.70000     19.846570542800      5.926070899490    -17.942848711700
     236   79  2  -0.35000     20.546995650900      6.598892258540    -18.577132628200
     237   79  2  -0.35000     19.146145434600      5.253249540450    -17.308564795300
     238   80  1   0.70000     10.247356704700    -14.127634152700      1.156967061780
     239   80  2  -0.35000     10.579180757000    -14.343525269900      0.066607568852
     240   80  2  -0.35000      9.915532652440    -13.911743035400      2.247326554710
     241   81  1   0.70000     20.211970246300     17.677128668900      6.945924484960
     242   81  2  -0.35000     20.239371894600     18.121103750000      8.017248561500
     243   81  2  -0.35000     20.184568597900     17.233153587700      5.874600408410
     244   82  1   0.70000    -14.753136256000     11.883963111600    -18.049809898100
     245   82  2  -0.35000    -14.658112839400     12.923272258700    -18.556176412800
     246   82  2  -0.35000    -14.848159672500     10.844653964600    -17.543443383500
     247   83  1   0.70000    -10.871205277700    -10.604775202000     -5.835587632240
     248   83  2  -0.35000    -10.117502168700    -10.916649366000     -5.010805158250
     249   83  2  -0.35000    -11.624908386600    -10.292901037900     -6.660370106230
     250   84  1   0.70000    -22.370288210600    -10.452119324400     10.739119283000
     251   84  2  -0.35000    -22.958295081400    -11.374727583000     11.124660358700
     252   84  2  -0.35000    -21.782281339800     -9.529511065850     10.353578207200
     253   85  1   0.70000     20.385387350100    -13.217346778700     18.650409139400
     254   85  2  -0.35000     19.861165010300    -12.548897953300     17.860493253900
     255   85  2  -0.35000     20.909609689900    -13.885795604200     19.440325025000
     256   86  1   0.70000      8.412104579190      9.611761894880      7.732537494020
     257   86  2  -0.35000      9.284539613560     10.368476465100      7.623724948860
     258   86  2  -0.35000      7.539669544830      8.855047324630      7.841350039190
     259   87  1   0.70000     14.940116104300      4.767066266030     22.007866971600
     260   87  2  -0.35000     14.436160190700      3.786737805380     22.369231810100
     261   87  2  -0.35000     15.444072017800      5.747394726690     21.646502133200
     262   88  1   0.70000     -8.531227883610      4.998995196240     12.388476087400
     263   88  2  -0.35000     -8.483199634570      5.488563115420     13.439007638400
     264   88  2  -0.35000     -8.579256132650      4.509427277060     11.337944536300
     265   89  1   0.70000     10.448417499300      7.777596681260    -22.402542055400
     266   89  2  -0.35000     10.683770084200      6.805962756910    -22.990875870300
     267   89  2  -0.35000     10.213064914400      8.749230605620    -21.814208240400
     268   90  1   0.70000      9.282530210660     21.607151690300     14.156391930300
     269   90  2  -0.35000      8.639854592890     21.058215112800     13.361887881100
     270   90  2  -0.35000      9.925205828420     22.156088267800     14.950895979500
     271   91  1   0.70000    -10.727432764100     -1.698248363740     -4.152689847160
     272   91  2  -0.35000    -10.225789423600     -1.044728053590     -3.336071721480
     273   91  2  -0.35000    -11.229076104500     -2.351768673880     -4.969307972830
     274   92  1   0.70000    -13.427815778700      6.001644702190     -8.822152534110
     275   92  2  -0.35000    -14.020610929100      6.055018071030     -9.817815726710
     276   92  2  -0.35000    -12.835020628200      5.948271333350     -7.826489341520
     277   93  1   0.70000     -2.507625394700    -10.172127545800     19.157670390300
     278   93  2  -0.35000     -3.325403884540    -10.797562877100     18.623190280400
     279   93  2  -0.35000     -1.689846904860     -9.546692214360     19.692150500100
     280   94  1   0.70000    -10.240833046300    -16.143897227600     15.898090121300
     281   94  2  -0.35000     -9.899511137400    -15.839263555800     14.832117475900
     282   94  2  -0.35000    -10.582154955200    -16.448530899300     16.964062766600
     283   95  1   0.70000    -18.561227090800     13.554460836500      1.054393957970
     284   95  2  -0.35000    -19.340787322200     13.455192499100      0.201146254959
     285   95  2  -0.35000    -17.781666859300     13.653729173800      1.907641660970
     286   96  1   0.70000      6.325702749480    -19.652967756500    -13.577372276000
     287   96  2  -0.35000      6.339193321620    -18.661970201500    -14.180150718200
     288   96  2  -0.35000      6.312212177340    -20.643965311600    -12.974593833900
     289   97  1   0.70000     -7.860010610630      6.606458816430    -14.043755299600
     290   97  2  -0.35000     -8.582488580100      6.957442747380    -13.206834835200
     291   97  2  -0.35000     -7.137532641170      6.255474885480    -14.880675764100
     292   98  1   0.70000     -8.012964352670     11.821312354300     -4.501514925050
     293   98  2  -0.35000     -8.657778155020     12.116177626300     -3.583435608370
     294   98  2  -0.35000     -7.368150550320     11.526447082400     -5.419594241720
     295   99  1   0.70000    -11.643047941900      8.377285460270      6.730983471050
     296   99  2  -0.35000    -10.903866320600      8.148780812030      7.595272864920
     297   99  2  -0.35000    -12.382229563300      8.605790108510      5.866694077170
     298  100  1   0.70000     11.807601219600    -14.078804653900    -15.386031169000
     299  100  2  -0.35000     11.284448475000    -15.107905274600    -15.499446856700
     300  100  2  -0.35000     12.330753964300    -13.049704033200    -15.272615481300
     301  101  1   0.70000     -7.638745386240    -22.000234110100     14.293360242300
     302  101  2  -0.35000     -7.281598002370    -21.124476559100     14.964995901000
     303  101  2  -0.35000     -7.995892770100    -22.875991661000     13.621724583600
     304  102  1   0.70000     -9.321331270980     19.150571255300     -3.092257525840
     305  102  2  -0.35000     -9.388703197370     19.801044168200     -2.134162534210
     306  102  2  -0.35000     -9.253959344600     18.500098342300     -4.050352517480
     307  103  1   0.70000     -2.304563520250      3.746427383890    -12.991262237200
     308  103  2  -0.35000     -1.207193596960      3.471524573040    -13.247792344700
     309  103  2  -0.35000     -3.401933443530      4.021330194750    -12.734732129700
     310  104  1   0.70000     -3.466667201830    -21.766244037400      1.666601374830
     311  104  2  -0.35000     -2.898960588950    -22.769230068600      1.534964666760
     312  104  2  -0.35000     -4.034373814720    -20.763258006200      1.798238082900
     313  105  1   0.70000    -12.940196304900     14.864485586100      2.963390395800
     314  105  2  -0.35000    -12.832896585500     14.230828301500      1.997696233040
     315  105  2  -0.35000    -13.047496024200     15.498142870600      3.929084558560
     316  106  1   0.70000      2.372798083680     13.982885682300     -6.000506955970
     317  106  2  -0.35000      3.216870484600     13.243315717600     -6.294067936570
     318  106  2  -0.35000      1.528725682770     14.722455647000     -5.706945975370
     319  107  1   0.70000     -7.594295407630     13.243404212600      0.462526806436
     320  107  2  -0.35000     -6.980162733250     12.979582795600     -0.485544561248
     321  107  2  -0.35000     -8.208428082010     13.507225629500      1.410598174120
     322  108  1   0.70000     -6.921532106440      3.275163292510      0.517502737848
     323  108  2  -0.35000     -7.459143636890      2.739049456860      1.394518015680
     324  108  2  -0.35000     -6.383920576000      3.811277128170     -0.359512539983
     325  109  1   0.70000      9.865702812490     20.702208372400      9.085675741220
     326  109  2  -0.35000     10.851614426700     20.332892821800      9.572691462810
     327  109  2  -0.35000      8.879791198300     21.071523923000      8.598660019620
     328  110  1   0.70000    -13.689598739500     -1.578887330560     13.288489013400
     329  110  2  -0.35000    -13.732374941300     -2.114186512570     12.260274550200
     330  110  2  -0.35000    -13.646822537800     -1.043588148550     14.316703476600
     331  111  1   0.70000     12.522042096200     -7.169863788860     21.634664552900
     332  111  2  -0.35000     11.567727422900     -6.540236751340     21.438569428200
     333  111  2  -0.35000     13.476356769500     -7.799490826370     21.830759677600
     334  112  1   0.70000    -17.279714160500    -14.808834552500     -4.699655112960
     335  112  2  -0.35000    -18.191165818900    -15.068069632200     -5.368723904410
     336  112  2  -0.35000    -16.368262502000    -14.549599472800     -4.030586321510
     337  113  1   0.70000      3.965848682810     -6.888455494410    -20.064234195800
     338  113  2  -0.35000      4.355179669910     -7.200994533020    -19.017171288500
     339  113  2  -0.35000      3.576517695700     -6.575916455800    -21.111297103100
     340  114  1   0.70000    -20.392591030500     19.611069568400    -13.757063286100