LAMMPS Atom File

         3000 atoms
         2000 bonds
         1000 angles
           0 dihedrals
           0 impropers

           2 atom types
           1 bond types
           1 angle types

         0.0  255.123043069 xlo xhi
         0.0  255.123043069 ylo yhi
         0.0  255.123043069 zlo zhi

Masses

         1   12.01070
         2   15.99990

Atoms

       1    1  1   0.70000    -72.027628738700    101.375681226000    -98.039840937600
       2    1  2  -0.35000    -72.424746859100    101.621830788000    -99.101588361200
       3    1  2  -0.35000    -71.630510618200    101.129531663000    -96.978093514000
       4    2  1   0.70000    115.162196761000     57.053716657600   -111.942125460000
       5    2  2  -0.35000    115.376050137000     55.918009881100   -112.042309549000
       6    2  2  -0.35000    114.948343386000     58.189423434200   -111.841941371000
       7    3  1   0.70000     30.265060573500     97.277376379200      1.153391484580
       8    3  2  -0.35000     29.392102046300     96.600921234800      0.798494531516
       9    3  2  -0.35000     31.138019100700     97.953831523700      1.508288437640
      10    4  1   0.70000    -36.210784660700     52.445669355500   -126.330725199000
      11    4  2  -0.35000    -36.805065513500     51.605123696500   -125.796016621000
      12    4  2  -0.35000    -35.616503808000     53.286215014400   -126.865433777000
      13    5  1   0.70000   -110.772596328000     75.351565180000    -52.576008326400
      14    5  2  -0.35000   -109.796785765000     75.346256218600    -53.203196941700
      15    5  2  -0.35000   -111.748406892000     75.356874141300    -51.948819711100
      16    6  1   0.70000     66.582229665100     -6.169143580040    -29.316571525900
      17    6  2  -0.35000     67.203071250200     -7.119817868410    -29.554003881800
      18    6  2  -0.35000     65.961388080000     -5.218469291660    -29.079139169900
      19    7  1   0.70000     16.085538897200   -102.539020578000    113.390293670000
      20    7  2  -0.35000     16.254268204900   -103.407176997000    114.140916645000
      21    7  2  -0.35000     15.916809589400   -101.670864158000    112.639670694000
      22    8  1   0.70000    -39.911723703200   -124.987851502000    -55.387571541500
      23    8  2  -0.35000    -40.198044232500   -125.640503363000    -56.302812549800
      24    8  2  -0.35000    -39.625403173900   -124.335199642000    -54.472330533200
      25    9  1   0.70000    -30.056524595200     13.327243043200     70.246098282600
      26    9  2  -0.35000    -29.122194748100     12.831408692000     70.722308354900
      27    9  2  -0.35000    -30.990854442400     13.823077394400     69.769888210300
      28   10  1   0.70000     57.405347057800    -72.424895600400   -115.926252546000
      29   10  2  -0.35000     56.250637963200    -72.468367369000   -115.824482648000
      30   10  2  -0.35000     58.560056152400    -72.381423831800   -116.028022445000
      31   11  1   0.70000    -66.696800218000    123.378982994000     23.471738764200
      32   11  2  -0.35000    -66.446856174600    122.574821766000     22.673958911600
      33   11  2  -0.35000    -66.946744261500    124.183144223000     24.269518616800
      34   12  1   0.70000    -58.915430321000     86.750489700800     16.237815224100
      35   12  2  -0.35000    -57.849429287600     86.293285024700     16.252156801800
      36   12  2  -0.35000    -59.981431354400     87.207694376900     16.223473646400
      37   13  1   0.70000     73.478250238700      3.842732333920     23.820100997500
      38   13  2  -0.35000     72.418474703400      3.910854350070     24.286829190200
      39   13  2  -0.35000     74.538025773900      3.774610317760     23.353372804800
      40   14  1   0.70000   -122.311285077000    -53.058900585000     92.754122540300
      41   14  2  -0.35000   -123.007182575000    -52.190334152100     93.081107284600
      42   14  2  -0.35000   -121.615387578000    -53.927467017900     92.427137796100
      43   15  1   0.70000    119.105490087000     79.149644010800    -81.882947578400
      44   15  2  -0.35000    118.737409664000     79.184169556600    -80.783436419500
      45   15  2  -0.35000    119.473570510000     79.115118465000    -82.982458737400
      46   16  1   0.70000    -63.698510928000     73.777771075100    101.421793736000
      47   16  2  -0.35000    -64.186658116100     73.150004115000    100.577269630000
      48   16  2  -0.35000    -63.210363739900     74.405538035200    102.266317843000
      49   17  1   0.70000     -8.145466140620     90.893434916900     70.377704992100
      50   17  2  -0.35000     -8.883244380990     90.457537771500     69.595862970500
      51   17  2  -0.35000     -7.407687900240     91.329332062200     71.159547013700
      52   18  1   0.70000     14.855387659900    118.213631163000   -105.814520624000
      53   18  2  -0.35000     14.298781329700    117.664386516000   -104.957712762000
      54   18  2  -0.35000     15.411993990100    118.762875809000   -106.671328486000
      55   19  1   0.70000    119.678108911000     29.182658568000     99.296462277300
      56   19  2  -0.35000    119.909096587000     30.277688854700     98.991251915000
      57   19  2  -0.35000    119.447121236000     28.087628281300     99.601672639500
      58   20  1   0.70000    -77.254374395300    105.850909303000   -105.188803945000
      59   20  2  -0.35000    -76.358521447400    105.533564989000   -104.523717423000
      60   20  2  -0.35000    -78.150227343200    106.168253618000   -105.853890467000
      61   21  1   0.70000    -59.808088229300   -110.010154188000     30.017847220400
      62   21  2  -0.35000    -59.583991257900   -110.517675294000     28.999121117000
      63   21  2  -0.35000    -60.032185200700   -109.502633081000     31.036573323800
      64   22  1   0.70000     -9.894794618850   -108.199748371000   -116.975734122000
      65   22  2  -0.35000    -10.077587741000   -108.771109981000   -115.982893458000
      66   22  2  -0.35000     -9.712001496670   -107.628386760000   -117.968574787000
      67   23  1   0.70000     -1.297402896000     25.406503072200     87.879050511300
      68   23  2  -0.35000     -2.297304632310     25.993944408100     87.905681219000
      69   23  2  -0.35000     -0.297501159691     24.819061736300     87.852419803600
      70   24  1   0.70000     -0.972953876479    -21.855337847100    -19.078165008900
      71   24  2  -0.35000     -0.598698319480    -21.376554796500    -20.066243734800
      72   24  2  -0.35000     -1.347209433480    -22.334120897600    -18.090086283000
      73   25  1   0.70000     27.730000524900    103.665913590000     13.514011393400
      74   25  2  -0.35000     28.525558175400    103.823604434000     12.684661272700
      75   25  2  -0.35000     26.934442874300    103.508222747000     14.343361514000
      76   26  1   0.70000    -53.730693838400     55.274509805800    -99.589523369500
      77   26  2  -0.35000    -54.548981490600     56.058807603800    -99.342780016500
      78   26  2  -0.35000    -52.912406186300     54.490212007700    -99.836266722600
      79   27  1   0.70000    126.742840109000   -102.135052070000     95.683325928200
      80   27  2  -0.35000    126.451543543000   -101.359835993000     96.495598262700
      81   27  2  -0.35000    127.034136675000   -102.910268146000     94.871053593700
      82   28  1   0.70000    -16.367168342900      1.521251952700     64.612868539500
      83   28  2  -0.35000    -16.688093744000      1.072031603990     63.592668576100
      84   28  2  -0.35000    -16.046242941700      1.970472301410     65.633068502800
      85   29  1   0.70000     97.667127103900    -45.693642547600      2.760004344310
      86   29  2  -0.35000     97.404562009700    -46.781981708300      3.063611726390
      87   29  2  -0.35000     97.929692198100    -44.605303386800      2.456396962240
      88   30  1   0.70000    114.947999988000     86.178973988600    112.684753702000
      89   30  2  -0.35000    114.419830726000     85.383577430500    113.343526459000
      90   30  2  -0.35000    115.476169251000     86.974370546600    112.025980945000
      91   31  1   0.70000    -26.118721178200    -59.685266485800   -109.272531945000
      92   31  2  -0.35000    -26.596314397400    -58.988615012800   -110.067630330000
      93   31  2  -0.35000    -25.641127959100    -60.381917958700   -108.477433560000
      94   32  1   0.70000     53.025152063100    -99.421942345800   -105.151438972000
      95   32  2  -0.35000     53.445449207300    -99.950935190500   -106.094368917000
      96   32  2  -0.35000     52.604854918800    -98.892949501100   -104.208509027000
      97   33  1   0.70000   -113.904052167000    -41.372047811000    -91.291939749800
      98   33  2  -0.35000   -114.174996662000    -42.499961313500    -91.291479989200
      99   33  2  -0.35000   -113.633107671000    -40.244134308600    -91.292399510400
     100   34  1   0.70000     83.677003755300   -103.629090062000     12.538954504100
     101   34  2  -0.35000     82.519183799900   -103.687244587000     12.498076611400
     102   34  2  -0.35000     84.834823710800   -103.570935538000     12.579832396900
     103   35  1   0.70000     43.953601659900   -122.845709271000    -76.494863934800
     104   35  2  -0.35000     44.610883542700   -122.661519457000    -75.556964879000
     105   35  2  -0.35000     43.296319777000   -123.029899085000    -77.432762990600
     106   36  1   0.70000     25.332499752400     59.176699963400    -70.073460614000
     107   36  2  -0.35000     24.929147843200     60.221004296300    -69.769592718900
     108   36  2  -0.35000     25.735851661600     58.132395630500    -70.377328509000
     109   37  1   0.70000     95.423638622900   -113.646669770000     81.672426555800
     110   37  2  -0.35000     95.725804227200   -114.754969206000     81.511279704300
     111   37  2  -0.35000     95.121473018600   -112.538370334000     81.833573407300
     112   38  1   0.70000    -23.803281039400   -114.579709759000     70.446018329100
     113   38  2  -0.35000    -23.741302468800   -115.702610357000     70.730364781000
     114   38  2  -0.35000    -23.865259610000   -113.456809162000     70.161671877200
     115   39  1   0.70000     88.049944535700    -14.355991335300   -110.353847084000
     116   39  2  -0.35000     88.266306568300    -13.223432751000   -110.226967125000
     117   39  2  -0.35000     87.833582503200    -15.488549919600   -110.480727043000
     118   40  1   0.70000    -34.987435655200    -81.514590902200    -15.088187139500
     119   40  2  -0.35000    -35.872675024100    -81.806757055200    -14.397832014400
     120   40  2  -0.35000    -34.102196286300    -81.222424749200    -15.778542264600
     121   41  1   0.70000     96.369823267500   -114.243640753000     36.628484140900
     122   41  2  -0.35000     95.283451179000   -113.968755162000     36.328761607200
     123   41  2  -0.35000     97.456195356000   -114.518526344000     36.928206674600
     124   42  1   0.70000     90.845179903500     93.438910116600    -36.001156388600
     125   42  2  -0.35000     91.810747384600     94.070107773800    -35.879218054800
     126   42  2  -0.35000     89.879612422500     92.807712459500    -36.123094722300
     127   43  1   0.70000    -90.346514732900    -54.750716584600    -74.274870914700
     128   43  2  -0.35000    -91.097290657200    -55.332531640000    -74.940773875200
     129   43  2  -0.35000    -89.595738808600    -54.168901529200    -73.608967954200
     130   44  1   0.70000   -101.432299774000   -118.525966906000     12.898394330800
     131   44  2  -0.35000   -101.615041016000   -119.008523339000     13.937309595100
     132   44  2  -0.35000   -101.249558532000   -118.043410472000     11.859479066500
     133   45  1   0.70000     69.357041627200    -58.018302058400    -66.481871022500
     134   45  2  -0.35000     69.157896927500    -58.081563617300    -67.622896597900
     135   45  2  -0.35000     69.556186327000    -57.955040499600    -65.340845447100
     136   46  1   0.70000    119.505229205000     33.025726361200    -36.197929713500
     137   46  2  -0.35000    119.289494456000     33.508640434600    -37.230331048300
     138   46  2  -0.35000    119.720963953000     32.542812287900    -35.165528378700
     139   47  1   0.70000    -12.646481665000     -0.069504781545      5.751901276730
     140   47  2  -0.35000    -11.899979208000     -0.777692103299      6.287442870880
     141   47  2  -0.35000    -13.392984121900      0.638682540210      5.216359682580
     142   48  1   0.70000     59.519429781100    -40.762267276800     60.594679507100
     143   48  2  -0.35000     58.790588290400    -40.028423932800     61.119907103400
     144   48  2  -0.35000     60.248271271800    -41.496110620800     60.069451910800
     145   49  1   0.70000     92.690827765600     53.316670219200   -103.515038075000
     146   49  2  -0.35000     92.733205888700     52.977241577000   -104.623456900000
     147   49  2  -0.35000     92.648449642400     53.656098861500   -102.406619250000
     148   50  1   0.70000     33.789509732200    -91.236313684100    108.094800481000
     149   50  2  -0.35000     33.293126395300    -91.347222549300    109.137346790000
     150   50  2  -0.35000     34.285893069100    -91.125404819000    107.052254172000
     151   51  1   0.70000      7.122450853980     27.837486354100    125.769974196000
     152   51  2  -0.35000      7.391224012310     28.483493179300    124.844751968000
     153   51  2  -0.35000      6.853677695650     27.191479528800    126.695196424000
     154   52  1   0.70000    -97.998969628800     38.401890539000     74.076545690900
     155   52  2  -0.35000    -96.870363135500     38.267605894400     74.308526331400
     156   52  2  -0.35000    -99.127576122100     38.536175183600     73.844565050400
     157   53  1   0.70000     -7.176918452670    126.236415087000    -57.094535425200
     158   53  2  -0.35000     -6.856398899510    127.267650929000    -57.518115233600
     159   53  2  -0.35000     -7.497438005830    125.205179245000    -56.670955616800
     160   54  1   0.70000   -101.234690557000     28.568021941500    -25.119479045200
     161   54  2  -0.35000   -100.206548562000     28.169076127000    -25.479154279600
     162   54  2  -0.35000   -102.262832553000     28.966967756000    -24.759803810800
     163   55  1   0.70000    -89.955910644300   -120.941205801000    -41.142718880500
     164   55  2  -0.35000    -90.994722913700   -120.758297489000    -41.625433722200
     165   55  2  -0.35000    -88.917098375000   -121.124114113000    -40.660004038700
     166   56  1   0.70000     14.018696585000   -114.724463083000   -122.783845359000
     167   56  2  -0.35000     13.235243825000   -114.766530344000   -123.638264530000
     168   56  2  -0.35000     14.802149345100   -114.682395822000   -121.929426189000
     169   57  1   0.70000     97.109163462000    -54.597781608100     46.217458474300
     170   57  2  -0.35000     96.076952837900    -54.280194281500     45.794044353800
     171   57  2  -0.35000     98.141374086100    -54.915368934800     46.640872594800
     172   58  1   0.70000     91.702136424200     35.748939226300    -95.852093757000
     173   58  2  -0.35000     92.858763636400     35.821865507900    -95.802141284600
     174   58  2  -0.35000     90.545509212100     35.676012944600    -95.902046229500
     175   59  1   0.70000    -36.464207727100     56.854101429800    -94.623809660100
     176   59  2  -0.35000    -35.478830416200     57.348110105900    -94.262441450100
     177   59  2  -0.35000    -37.449585037900     56.360092753800    -94.985177870200
     178   60  1   0.70000     18.037262700800    -49.870512028000    -11.212394025500
     179   60  2  -0.35000     18.952067672800    -49.376538799200    -11.726905747800
     180   60  2  -0.35000     17.122457728800    -50.364485256800    -10.697882303100
     181   61  1   0.70000    -55.857056436600     70.266983392400   -127.060650243000
     182   61  2  -0.35000    -55.885716498300     70.521152753500   -125.929201377000
     183   61  2  -0.35000    -55.828396374800     70.012814031400   -128.192099108909
     184   62  1   0.70000    -66.353640611400      6.133147416380    -61.029997847900
     185   62  2  -0.35000    -65.986249527800      5.712931676780    -62.046876662700
     186   62  2  -0.35000    -66.721031694900      6.553363155970    -60.013119033200
     187   63  1   0.70000    -38.024540955200     48.896457661700   -116.466497970000
     188   63  2  -0.35000    -36.925617078800     49.013616552200   -116.114020867000
     189   63  2  -0.35000    -39.123464831500     48.779298771200   -116.818975073000
     190   64  1   0.70000   -118.519799848000   -123.824245336000    -93.669953957100
     191   64  2  -0.35000   -118.888975423000   -124.134762211000    -94.724889341400
     192   64  2  -0.35000   -118.150624273000   -123.513728460000    -92.615018572900
     193   65  1   0.70000    -83.902679651900     71.812767764100     20.728341678400
     194   65  2  -0.35000    -83.494071417500     71.020973772400     19.985575506900
     195   65  2  -0.35000    -84.311287886200     72.604561755800     21.471107850000
     196   66  1   0.70000      1.069905935180    -60.354576630900   -115.655933404000
     197   66  2  -0.35000      1.513155936680    -60.253639975200   -116.723145299000
     198   66  2  -0.35000      0.626655933666    -60.455513286600   -114.588721510000
     199   67  1   0.70000     54.853308443300     96.919828987300    -89.006149567600
     200   67  2  -0.35000     53.814746312500     96.569521665300    -89.385983058400
     201   67  2  -0.35000     55.891870574100     97.270136309300    -88.626316076900
     202   68  1   0.70000   -105.625986311000     65.062061716000    -53.972380502300
     203   68  2  -0.35000   -104.541198860000     65.255093668300    -53.609648024000
     204   68  2  -0.35000   -106.710773762000     64.869029763600    -54.335112980500
     205   69  1   0.70000    125.415420067000   -119.574553071000    -47.592497149800
     206   69  2  -0.35000    124.971834432000   -119.819696730000    -48.635922456500
     207   69  2  -0.35000    125.859005702000   -119.329409412000    -46.549071843200
     208   70  1   0.70000    -22.108792823900     55.281620194700     50.974355332500
     209   70  2  -0.35000    -23.061325932000     55.820987147800     50.590475184900
     210   70  2  -0.35000    -21.156259715700     54.742253241500     51.358235480100
     211   71  1   0.70000   -123.992155787000   -102.918613481000    125.207821016000
     212   71  2  -0.35000   -125.130709281000   -103.137592568000    125.244482984000
     213   71  2  -0.35000   -122.853602293000   -102.699634394000    125.171159048000
     214   72  1   0.70000     32.091855003000    -91.064644122800     32.599035658900
     215   72  2  -0.35000     31.877798800400    -90.473701489100     33.574005784600
     216   72  2  -0.35000     32.305911205500    -91.655586756500     31.624065533300
     217   73  1   0.70000    -75.232628184300    -59.337257289000      7.795008543660
     218   73  2  -0.35000    -74.477804045200    -60.205760019200      7.648231410990
     219   73  2  -0.35000    -75.987452323400    -58.468754558800      7.941785676320
     220   74  1   0.70000    -48.477312441800    -56.636494980600     21.083994080300
     221   74  2  -0.35000    -48.185342916700    -56.224576462800     22.128348872000
     222   74  2  -0.35000    -48.769281967000    -57.048413498500     20.039639288600
     223   75  1   0.70000    -80.876626260500    -35.395942647800     52.413620156600
     224   75  2  -0.35000    -79.751623027800    -35.497860419800     52.149839008200
     225   75  2  -0.35000    -82.001629493100    -35.294024875700     52.677401305100
     226   76  1   0.70000   -113.442175620000    -43.508211619300    -31.467527127000
     227   76  2  -0.35000   -114.338618217000    -43.819013481000    -32.134904735800
     228   76  2  -0.35000   -112.545733023000    -43.197409757600    -30.800149518200
     229   77  1   0.70000   -109.600055878000     14.575136965900     99.759079857000
     230   77  2  -0.35000   -109.422401703000     13.724064706800     98.991150821400
     231   77  2  -0.35000   -109.777710054000     15.426209225000    100.527008893000
     232   78  1   0.70000    -38.742196905900   -104.327438484000     46.827422844700
     233   78  2  -0.35000    -38.251953840600   -104.410291657000     47.875467256300
     234   78  2  -0.35000    -39.232439971100   -104.244585310000     45.779378433100
     235   79  1   0.70000    -51.201972196900     24.771127722800    -48.182591286000
     236   79  2  -0.35000    -51.846283485900     25.572780971000    -48.719075239600
     237   79  2  -0.35000    -50.557660907800     23.969474474600    -47.646107332400
     238   80  1   0.70000    -31.382011671500    -89.422660443200     30.595023103300
     239   80  2  -0.35000    -31.548379836200    -89.453782054000     31.742608864400
     240   80  2  -0.35000    -31.215643506800    -89.391538832500     29.447437342200
     241   81  1   0.70000    117.295524087000    -29.461500848500    118.331337302000
     242   81  2  -0.35000    117.199298718000    -28.636367901600    117.521710043000
     243   81  2  -0.35000    117.391749457000    -30.286633795300    119.140964561000
     244   82  1   0.70000    111.959628303000     35.162908584200    -97.849336045500
     245   82  2  -0.35000    112.114073400000     34.572122526800    -96.863071098100
     246   82  2  -0.35000    111.805183206000     35.753694641500    -98.835600992800
     247   83  1   0.70000     69.233304176100    -78.184795464500      2.291012727680
     248   83  2  -0.35000     68.137811525200    -78.367459532900      1.956155012050
     249   83  2  -0.35000     70.328796827100    -78.002131396000      2.625870443300
     250   84  1   0.70000    112.241430212000     82.839468315900     24.140884171400
     251   84  2  -0.35000    111.984618596000     83.571698540700     25.003140915000
     252   84  2  -0.35000    112.498241828000     82.107238091200     23.278627427800
     253   85  1   0.70000     81.034872726600     75.944364912000     80.393141570500
     254   85  2  -0.35000     80.283287979500     75.614603126100     79.573399213200
     255   85  2  -0.35000     81.786457473800     76.274126697800     81.212883927900
     256   86  1   0.70000    -82.459706089200     78.272360851900    -95.177692857100
     257   86  2  -0.35000    -82.141127196100     78.723084345100    -94.157420432000
     258   86  2  -0.35000    -82.778284982300     77.821637358600    -96.197965282300
     259   87  1   0.70000     81.446675863100   -101.838972693000     81.628915165300
     260   87  2  -0.35000     82.240994035300   -102.117116264000     80.830607708800
     261   87  2  -0.35000     80.652357690900   -101.560829122000     82.427222621900
     262   88  1   0.70000    -43.945944131900    -68.672795922000    -39.464763289900
     263   88  2  -0.35000    -44.014424649500    -68.641536495000    -40.622318155600
     264   88  2  -0.35000    -43.877463614400    -68.704055349100    -38.307208424300
     265   89  1   0.70000   -120.717206030000    -43.886136087000     72.140604319100
     266   89  2  -0.35000   -121.069890475000    -44.943176797500     71.818302257800
     267   89  2  -0.35000   -120.364521585000    -42.829095376500     72.462906380400
     268   90  1   0.70000    120.753425090000    -92.228761102700    108.859394127000
     269   90  2  -0.35000    121.569420903000    -91.513430875900    108.449450838000
     270   90  2  -0.35000    119.937429278000    -92.944091329400    109.269337417000
     271   91  1   0.70000     44.449353271200     60.183571452100     47.857583495400
     272   91  2  -0.35000     45.212850068200     60.148401871100     48.730186349900
     273   91  2  -0.35000     43.685856474300     60.218741033100     46.984980640900
     274   92  1   0.70000     94.591343621700     12.415889384300    120.969677533000
     275   92  2  -0.35000     95.409381014300     12.148048341300    120.192068376000
     276   92  2  -0.35000     93.773306229100     12.683730427300    121.747286689000
     277   93  1   0.70000    -81.812264712600     38.738849443400     53.544757944000
     278   93  2  -0.35000    -82.210422819600     39.745412855600     53.127744492100
     279   93  2  -0.35000    -81.414106605500     37.732286031200     53.961771395800
     280   94  1   0.70000     60.770262486300     42.137150396400   -125.617471493000
     281   94  2  -0.35000     59.787272267500     41.772252129500   -126.113636268000
     282   94  2  -0.35000     61.753252705000     42.502048663400   -125.121306717000
     283   95  1   0.70000     45.668010238900    121.562466037000     63.983740176600
     284   95  2  -0.35000     45.421096791100    120.500634408000     64.380158314700
     285   95  2  -0.35000     45.914923686600    122.624297666000     63.587322038400
     286   96  1   0.70000    -50.604456848000    -15.996585407700    -16.370391385800
     287   96  2  -0.35000    -50.953122080000    -16.546720936800    -17.330278595700
     288   96  2  -0.35000    -50.255791616000    -15.446449878600    -15.410504176000
     289   97  1   0.70000    -87.605763207800     32.818214004100    -50.917712264300
     290   97  2  -0.35000    -87.945073313900     32.824319119300    -49.808464149800
     291   97  2  -0.35000    -87.266453101700     32.812108888900    -52.026960378800
     292   98  1   0.70000    -15.163204845600    -71.348207969000    122.410702909000
     293   98  2  -0.35000    -16.093688894300    -71.775337681300    122.956009836000
     294   98  2  -0.35000    -14.232720796900    -70.921078256700    121.865395983000
     295   99  1   0.70000    -58.375681528400    -85.676787641500    100.301015865000
     296   99  2  -0.35000    -57.506931332500    -86.400732640800    100.559427813000
     297   99  2  -0.35000    -59.244431724400    -84.952842642200    100.042603916000
     298  100  1   0.70000   -126.849703060000     67.003251370300    -21.320500146000
     299  100  2  -0.35000   -126.497145154000     67.237183782600    -20.240417487400
     300  100  2  -0.35000   -127.202260966000     66.769318958000    -22.400582804500
     301  101  1   0.70000     55.342467056100   -112.810740423000    -76.978827908000
     302  101  2  -0.35000     54.522751050900   -112.533242535000    -76.206389824600
     303  101  2  -0.35000     56.162183061400   -113.088238312000    -77.751265991400
     304  102  1   0.70000    -42.625240016700     34.150084104800    -71.571620706200
     305  102  2  -0.35000    -43.455018619300     33.905580733400    -72.344463233400
     306  102  2  -0.35000    -41.795461414100     34.394587476300    -70.798778178900
     307  103  1   0.70000    -50.960856507300     40.111233407200   -117.050970220000
     308  103  2  -0.35000    -49.863486584100     39.836330596300   -117.307500327000
     309  103  2  -0.35000    -52.058226430600     40.386136218000   -116.794440112000
     310  104  1   0.70000      2.939535250900    -38.350084410800    -56.928346528100
     311  104  2  -0.35000      2.547696218010    -37.792626813300    -57.867124030600
     312  104  2  -0.35000      3.331374283780    -38.907542008200    -55.989569025500
     313  105  1   0.70000     95.460372252000    -38.681436550800     -5.673621713780
     314  105  2  -0.35000     95.567671971300    -39.315093835300     -6.639315876540
     315  105  2  -0.35000     95.353072532700    -38.047779266200     -4.707927551020
     316  106  1   0.70000     65.910841559900      2.813847061410     22.935116267200
     317  106  2  -0.35000     65.412164136100      3.126752949810     23.934621510800
     318  106  2  -0.35000     66.409518983600      2.500941173020     21.935611023600
     319  107  1   0.70000     99.431980968900    -46.413703783000     -7.826615543110
     320  107  2  -0.35000     99.567296829700    -45.490601488500     -7.137288500420
     321  107  2  -0.35000     99.296665108000    -47.336806077400     -8.515942585800
     322  108  1   0.70000    103.884759161000     61.999931135400     42.554469862200
     323  108  2  -0.35000    104.702295847000     62.213327159400     43.349262857000
     324  108  2  -0.35000    103.067222476000     61.786535111400     41.759676867400
     325  109  1   0.70000   -120.892950239000   -119.574545006000     -0.518472798432
     326  109  2  -0.35000   -120.076175434000   -120.285504869000     -0.934423506443
     327  109  2  -0.35000   -121.709725044000   -118.863585144000     -0.102522090421
     328  110  1   0.70000     83.165594966200     96.578201128100    -41.950022657700
     329  110  2  -0.35000     83.859603897900     97.505808401300    -42.009152594700
     330  110  2  -0.35000     82.471586034600     95.650593854900    -41.890892720700
     331  111  1   0.70000     37.091837312500      4.759424258980     31.984103694800
     332  111  2  -0.35000     36.253740694800      3.958161256920     31.949874163400
     333  111  2  -0.35000     37.929933930300      5.560687261030     32.018333226300
     334  112  1   0.70000    -36.548049475500     27.450894319300    -82.354369716400
     335  112  2  -0.35000    -35.608928109600     27.996114754100    -82.762273795600
     336  112  2  -0.35000    -37.487170841300     26.905673884600    -81.946465637300
     337  113  1   0.70000    111.707823897000    100.416786195000    117.326600059000
     338  113  2  -0.35000    112.492434694000    100.833078245000    118.072714546000
     339  113  2  -0.35000    110.923213101000    100.000494144000    116.580485573000
     340  114  1   0.70000    118.279534014000      7.068816309970   -123.022501867000