LAMMPS Atom File

         3000 atoms
         2000 bonds
         1000 angles
           0 dihedrals
           0 impropers

           2 atom types
           1 bond types
           1 angle types

         0.0  42.5863285018 xlo xhi
         0.0  42.5863285018 ylo yhi
         0.0  42.5863285018 zlo zhi

Masses

         1   12.01070
         2   15.99990

Atoms

       1    1  1   0.70000    -12.601229171800     17.840206232600    -17.709355374400
       2    1  2  -0.35000    -11.533683665600     18.085721507800    -18.091021251600
       3    1  2  -0.35000    -13.668774678000     17.594690957400    -17.327689497100
       4    2  1   0.70000     18.155707622800     13.519303016200    -17.290504909900
       5    2  2  -0.35000     19.315313738100     13.530841347200    -17.318442776300
       6    2  2  -0.35000     16.996101507600     13.507764685300    -17.262567043500
       7    3  1   0.70000      6.154779190860     14.579781059500     -2.851281468960
       8    3  2  -0.35000      7.191137451240     14.975304872700     -2.511984446720
       9    3  2  -0.35000      5.118420930470     14.184257246300     -3.190578491190
      10    4  1   0.70000     -2.400999303720     10.361119136500    -18.890365837000
      11    4  2  -0.35000     -3.178364028050      9.887512653440    -19.609393642200
      12    4  2  -0.35000     -1.623634579400     10.834725619500    -18.171338031800
      13    5  1   0.70000     19.317131495800     15.997144363800     -7.863309823810
      14    5  2  -0.35000     18.676569317300     15.139816243700     -7.415796036320
      15    5  2  -0.35000     19.957693674300     16.854472483900     -8.310823611290
      16    6  1   0.70000     10.563195107000     -1.381852734310     -5.198384233580
      17    6  2  -0.35000     10.487611537500     -2.401954416980     -4.651319629490
      18    6  2  -0.35000     10.638778676400     -0.361751051636     -5.745448837660
      19    7  1   0.70000      3.179999218450    -14.860865633200     18.919155442000
      20    7  2  -0.35000      2.701627693740    -13.855687470000     19.245311148100
      21    7  2  -0.35000      3.658370743160    -15.866043796300     18.592999735900
      22    8  1   0.70000     -6.427425738050    -19.509649842900     -9.312895189980
      23    8  2  -0.35000     -6.390688321840    -18.791629191300     -8.402567388460
      24    8  2  -0.35000     -6.464163154250    -20.227670494400    -10.223222991500
      25    9  1   0.70000     -0.414772657991      1.842177193030      9.544291714930
      26    9  2  -0.35000     -0.028607165379      1.003880723170     10.246954678900
      27    9  2  -0.35000     -0.800938150602      2.680473662890      8.841628750970
      28   10  1   0.70000     10.265323263600    -14.980274896400     19.458204673300
      29   10  2  -0.35000      9.885592067280    -14.013252756100     19.974220563300
      30   10  2  -0.35000     10.645054460000    -15.947297036700     18.942188783400
      31   11  1   0.70000    -10.880837132100     18.588732863000      2.696966851460
      32   11  2  -0.35000    -11.452878962300     17.672142728400      3.119140594870
      33   11  2  -0.35000    -10.308795301900     19.505322997600      2.274793108060
      34   12  1   0.70000    -10.244675264300     13.295005936100      3.747631159030
      35   12  2  -0.35000    -11.160203324700     13.164617963600      3.047340257090
      36   12  2  -0.35000     -9.329147203950     13.425393908500      4.447922060970
      37   13  1   0.70000     16.408416666500      1.072550113550      2.805355927510
      38   13  2  -0.35000     15.476273851900      1.663283988280      2.447944032710
      39   13  2  -0.35000     17.340559481000      0.481816238816      3.162767822320
      40   14  1   0.70000    -18.258209812700     -7.424279782200     17.235253465400
      41   14  2  -0.35000    -18.667753730600     -8.025085871280     18.139081890800
      42   14  2  -0.35000    -17.848665894800     -6.823473693120     16.331425040000
      43   15  1   0.70000     17.367149035700     12.130811369800    -14.755414599600
      44   15  2  -0.35000     16.218631947200     12.127396086400    -14.918193078500
      45   15  2  -0.35000     18.515666124300     12.134226653300    -14.592636120700
      46   16  1   0.70000    -11.325189883200     14.643241024600     17.745069520900
      47   16  2  -0.35000    -12.139902881100     15.168882900400     18.381892376500
      48   16  2  -0.35000    -10.510476885300     14.117599148700     17.108246665300
      49   17  1   0.70000     -2.724669197790     18.931231964500     12.684996222100
      50   17  2  -0.35000     -3.389750636400     19.399296561200     13.512149299400
      51   17  2  -0.35000     -2.059587759190     18.463167367800     11.857843144800
      52   18  1   0.70000      4.665825078110     15.224041540400    -14.760551954100
      53   18  2  -0.35000      5.471754516750     15.975414103200    -14.397899211400
      54   18  2  -0.35000      3.859895639470     14.472668977600    -15.123204696900
      55   19  1   0.70000     17.765510844500      6.060677472030     20.433825660600
      56   19  2  -0.35000     17.115622814900      6.070390233810     19.473018077800
      57   19  2  -0.35000     18.415398874100      6.050964710260     21.394633243463
      58   20  1   0.70000    -10.744505740300    -20.876254089400      4.863933585610
      59   20  2  -0.35000     -9.681815497190    -20.411326801200      4.852441677520
      60   20  2  -0.35000    -11.807195983400    -21.341181377563      4.875425493700
      61   21  1   0.70000     -0.987138713703    -16.618039752500    -18.262772426900
      62   21  2  -0.35000     -2.094439778100    -16.924694399700    -18.422294463400
      63   21  2  -0.35000      0.120162350698    -16.311385105300    -18.103250390500
      64   22  1   0.70000     -1.895913245310      6.244772462690     10.771511474500
      65   22  2  -0.35000     -1.157928026810      6.671406289300      9.984770478160
      66   22  2  -0.35000     -2.633898463820      5.818138636090     11.558252470800
      67   23  1   0.70000     -1.231691354440     -1.761487950060     -3.968400865260
      68   23  2  -0.35000     -2.215634956090     -2.259349097880     -3.608415773550
      69   23  2  -0.35000     -0.247747752786     -1.263626802230     -4.328385956980
      70   24  1   0.70000      7.886311261710     14.624764296300      6.198331936020
      71   24  2  -0.35000      8.676863093040     14.107961319800      5.524876306100
      72   24  2  -0.35000      7.095759430390     15.141567272800      6.871787565940
      73   25  1   0.70000    -12.189479729000     11.949101174000    -17.453456701300
      74   25  2  -0.35000    -11.197947004400     11.800672407000    -16.869991400600
      75   25  2  -0.35000    -13.181012453700     12.097529941000    -18.036922002000
      76   26  1   0.70000    -18.203283081700    -15.981742713300     18.590473283500
      77   26  2  -0.35000    -18.242840579800    -15.853065994000     17.438311182900
      78   26  2  -0.35000    -18.163725583600    -16.110419432700     19.742635384200
      79   27  1   0.70000     12.486741839200     -6.347553561620     -1.481167184630
      80   27  2  -0.35000     12.195445273200     -5.572337485150     -0.668894850115
      81   27  2  -0.35000     12.778038405200     -7.122769638100     -2.293439519150
      82   28  1   0.70000     19.217979295100     17.332083439400    -18.911317336800
      83   28  2  -0.35000     19.774076660000     16.442273671900    -19.405882093400
      84   28  2  -0.35000     18.661881930300     18.221893206900    -18.416752580200
      85   29  1   0.70000     -5.068027967630     -9.292241592040    -16.431545255400
      86   29  2  -0.35000     -4.189062707450     -9.952154605940    -16.060688294500
      87   29  2  -0.35000     -5.946993227800     -8.632328578130    -16.802402216400
      88   30  1   0.70000      5.533118326550    -14.434799887100    -17.481370421800
      89   30  2  -0.35000      6.192751083680    -13.833578470100    -16.740413315400
      90   30  2  -0.35000      4.873485569410    -15.036021304200    -18.222327528100
      91   31  1   0.70000    -16.052006841000     -5.947209438340    -15.195040240900
      92   31  2  -0.35000    -15.422899471300     -6.583713449880    -14.457011406400
      93   31  2  -0.35000    -16.681114210800     -5.310705426810    -15.933069075500
      94   32  1   0.70000     13.181199374200    -15.870410984200      3.311874309600
      95   32  2  -0.35000     13.190976884800    -16.583518100200      4.226741863560
      96   32  2  -0.35000     13.171421863500    -15.157303868100      2.397006755640
      97   33  1   0.70000      4.139569883890     19.165549087500    -14.205575832800
      98   33  2  -0.35000      3.703267347940     19.495025025900    -15.228652420000
      99   33  2  -0.35000      4.575872419850     18.836073149100    -13.182499245700
     100   34  1   0.70000      2.814466103620     11.857065869100    -10.246064785800
     101   34  2  -0.35000      3.726023736480     11.886003354900     -9.529248697910
     102   34  2  -0.35000      1.902908470760     11.828128383200    -10.962880873700
     103   35  1   0.70000     14.068875208400    -20.262259195500     14.136127983200
     104   35  2  -0.35000     13.642531246700    -19.188207979400     14.034911326800
     105   35  2  -0.35000     14.495219170000    -21.336310411663     14.237344639700
     106   36  1   0.70000     -3.318857262170    -19.313198140700     13.622445592900
     107   36  2  -0.35000     -3.888578601770    -18.474420222500     13.059001541500
     108   36  2  -0.35000     -2.749135922570    -20.151976058900     14.185889644400
     109   37  1   0.70000     13.009853309000     -3.764570369610    -18.112516395900
     110   37  2  -0.35000     11.873665781600     -3.707028002060    -18.339158798500
     111   37  2  -0.35000     14.146040836300     -3.822112737160    -17.885873993300
     112   38  1   0.70000     -7.877499903730    -12.005786378900     -2.762594907460
     113   38  2  -0.35000     -8.176566320040    -11.513237732600     -3.769349649030
     114   38  2  -0.35000     -7.578433487420    -12.498335025200     -1.755840165880
     115   39  1   0.70000     14.211708991800    -19.858015032000      3.059188035220
     116   39  2  -0.35000     14.966598234300    -19.598246386000      2.217604716650
     117   39  2  -0.35000     13.456819749300    -20.117783678100      3.900771353790
     118   40  1   0.70000     11.798944944200     14.417565199900     -7.544834079240
     119   40  2  -0.35000     12.581935972700     14.629083894300     -8.374162054910
     120   40  2  -0.35000     11.015953915700     14.206046505500     -6.715506103580
     121   41  1   0.70000    -15.164324438300    -19.352636326900      3.692248528260
     122   41  2  -0.35000    -16.114994519700    -19.922114386700      4.035062086500
     123   41  2  -0.35000    -14.213654356800    -18.783158267100      3.349434970020
     124   42  1   0.70000     13.249942927800     -8.456162501680    -10.811872271500
     125   42  2  -0.35000     14.392286543300     -8.301308098170    -10.940989187100
     126   42  2  -0.35000     12.107599312300     -8.611016905180    -10.682755356000
     127   43  1   0.70000     18.545007025400      7.704804381610     -6.400894973220
     128   43  2  -0.35000     19.177904402800      6.761127946290     -6.634380936740
     129   43  2  -0.35000     17.912109648100      8.648480816930     -6.167409009700
     130   44  1   0.70000     -3.718338106740     -2.148828294350     -0.229279604258
     131   44  2  -0.35000     -2.604400919280     -2.068644353310     -0.542831000359
     132   44  2  -0.35000     -4.832275294190     -2.229012235380      0.084271791843
     133   45  1   0.70000      9.568872412620     -5.149581441670      6.446165114110
     134   45  2  -0.35000      8.948401435440     -4.360661333850      5.864597551430
     135   45  2  -0.35000     10.189343389800     -5.938501549480      7.027732676790
     136   46  1   0.70000      7.055751607680    -10.420371236400     17.741451194700
     137   46  2  -0.35000      6.222993122930     -9.817709985830     17.203945173300
     138   46  2  -0.35000      7.888510092430    -11.023032487000     18.278957216200
     139   47  1   0.70000      3.765206365450      4.408697700800     19.400451128400
     140   47  2  -0.35000      3.360953233550      5.489003814380     19.523406837200
     141   47  2  -0.35000      4.169459497350      3.328391587220     19.277495419700
     142   48  1   0.70000    -14.445065071400      8.705119158960     10.364018364500
     143   48  2  -0.35000    -14.537598272900      7.552327956690     10.454074183800
     144   48  2  -0.35000    -14.352531869800      9.857910361220     10.273962545200
     145   49  1   0.70000     -0.646491769359     19.273538305200    -11.406202338000
     146   49  2  -0.35000     -0.114975848773     18.526683439800    -12.117045946900
     147   49  2  -0.35000     -1.178007689940     20.020393170500    -10.695358729100
     148   50  1   0.70000    -16.917519586700      6.083482869550     -5.048137158720
     149   50  2  -0.35000    -17.614076805100      5.937043633980     -5.964086716140
     150   50  2  -0.35000    -16.220962368300      6.229922105130     -4.132187601290
     151   51  1   0.70000    -17.404677542600    -20.668899158400     -5.027071159760
     152   51  2  -0.35000    -17.420342829000    -20.439838742800     -3.890019742790
     153   51  2  -0.35000    -17.389012256200    -20.897959574000     -6.164122576730
     154   52  1   0.70000      5.302299704480    -19.357961806200    -21.001052803700
     155   52  2  -0.35000      6.192096469720    -18.867638213600    -20.441191668200
     156   52  2  -0.35000      4.412502939240    -19.848285398900    -21.560913939163
     157   53  1   0.70000     16.197442704300     -8.731519631360      8.148168908900
     158   53  2  -0.35000     15.834870501900     -8.653714982070      9.247299399150
     159   53  2  -0.35000     16.560014906800     -8.809324280650      7.049038418660
     160   54  1   0.70000     -7.070441371410     10.166353075800    -19.333735139600
     161   54  2  -0.35000     -6.001123391530      9.843163417130    -19.021153146500
     162   54  2  -0.35000     -8.139759351290     10.489542734600    -19.646317132700
     163   55  1   0.70000      1.429307382260     -9.539189990410      2.203759013080
     164   55  2  -0.35000      0.319678199874     -9.208120583890      2.272433066870
     165   55  2  -0.35000      2.538936564640     -9.870259396930      2.135084959280
     166   56  1   0.70000    -10.588067556400     10.594038655700     20.717381586200
     167   56  2  -0.35000    -11.667950362800     10.554410309500     21.139143033600
     168   56  2  -0.35000     -9.508184749960     10.633667001800     20.295620138700
     169   57  1   0.70000    -12.393006386000     -0.802641063521    -12.659578320300
     170   57  2  -0.35000    -12.072357770800     -1.917243218970    -12.680708882600
     171   57  2  -0.35000    -12.713655001200      0.311961091928    -12.638447758100
     172   58  1   0.70000     -3.820221633270      6.323027674880    -20.940676882700
     173   58  2  -0.35000     -3.558208901020      5.843644414450    -21.963975967863
     174   58  2  -0.35000     -4.082234365510      6.802410935320    -19.917377797500
     175   59  1   0.70000    -20.795667133100    -18.598777920000    -14.905582422600
     176   59  2  -0.35000    -20.003882652700    -18.606111920900    -14.057865754700
     177   59  2  -0.35000    -21.587451613563    -18.591443919000    -15.753299090500
     178   60  1   0.70000    -10.148133548500     16.531777042300     -3.222229973620
     179   60  2  -0.35000     -9.264482205710     16.979638471300     -3.825703622460
     180   60  2  -0.35000    -11.031784891200     16.083915613300     -2.618756324780
     181   61  1   0.70000      5.434982141790    -10.553654834400    -19.947655265200
     182   61  2  -0.35000      5.532186119000    -11.667287524300    -19.637859172800
     183   61  2  -0.35000      5.337778164580     -9.440022144550    -20.257451357600
     184   62  1   0.70000      8.754861366080     16.061310617200    -10.927831337900
     185   62  2  -0.35000      8.734098969070     17.096298902900    -11.451251027300
     186   62  2  -0.35000      8.775623763100     15.026322331400    -10.404411648500
     187   63  1   0.70000    -16.417338350900     11.618802870500     -8.369485946540
     188   63  2  -0.35000    -16.861994221900     12.230444725000     -9.249130987540
     189   63  2  -0.35000    -15.972682479800     11.007161016000     -7.489840905540
     190   64  1   0.70000    -19.563745137900    -14.244357155200     -6.668687034080
     191   64  2  -0.35000    -19.669454286100    -13.749915094400     -5.624679072170
     192   64  2  -0.35000    -19.458035989800    -14.738799216000     -7.712694995990
     193   65  1   0.70000     -4.670424215060      8.630831449040      9.614248840180
     194   65  2  -0.35000     -5.297456193360      8.307870889090     10.535187152400
     195   65  2  -0.35000     -4.043392236760      8.953792009000      8.693310527970
     196   66  1   0.70000     20.690330913200    -17.616599889400    -20.610042347200
     197   66  2  -0.35000     20.225792796700    -16.664433034000    -21.082464423100
     198   66  2  -0.35000     21.154869029600    -18.568766744800    -20.137620271200
     199   67  1   0.70000      5.160326165110    -18.041521621500      1.827765176540
     200   67  2  -0.35000      5.832859757960    -18.552652484400      2.622777005070
     201   67  2  -0.35000      4.487792572260    -17.530390758700      1.032753348010
     202   68  1   0.70000    -11.826631343500     -7.566878491010     -5.855920590890
     203   68  2  -0.35000    -10.893929810000     -8.082550697950     -5.397935848420
     204   68  2  -0.35000    -12.759332877100     -7.051206284070     -6.313905333350
     205   69  1   0.70000     -7.477566898160     -9.675252688740      3.558921983300
     206   69  2  -0.35000     -7.017748372740     -9.966497056760      4.583296739810
     207   69  2  -0.35000     -7.937385423580     -9.384008320720      2.534547226790
     208   70  1   0.70000    -12.041967792900     -8.207582702630     11.399838504700
     209   70  2  -0.35000    -11.467632295200     -7.302693201330     11.843588126000
     210   70  2  -0.35000    -12.616303290700     -9.112472203930     10.956088883400
     211   71  1   0.70000     19.798082828600     -6.284242216970     -2.807076656250
     212   71  2  -0.35000     20.783252529900     -5.761384805690     -3.125919543830
     213   71  2  -0.35000     18.812913127200     -6.807099628240     -2.488233768660
     214   72  1   0.70000    -14.775838363100      3.699152835390     13.731038721600
     215   72  2  -0.35000    -15.061814615200      4.517625969110     12.960377114500
     216   72  2  -0.35000    -14.489862111000      2.880679701670     14.501700328700
     217   73  1   0.70000     -6.447972027130    -20.175328477300      5.719205167990
     218   73  2  -0.35000     -6.505689559430    -21.323312213963      5.875416648710
     219   73  2  -0.35000     -6.390254494830    -19.027344740600      5.562993687270
     220   74  1   0.70000     -6.019873988250      3.804047111930     -2.103767372870
     221   74  2  -0.35000     -4.939471999730      3.549436537820     -2.440672402150
     222   74  2  -0.35000     -7.100275976770      4.058657686040     -1.766862343590
     223   75  1   0.70000     -4.958543719640    -13.856072402000      5.168331640080
     224   75  2  -0.35000     -4.182370793990    -13.083710621600      4.785431039740
     225   75  2  -0.35000     -5.734716645280    -14.628434182300      5.551232240410
     226   76  1   0.70000     20.134931850600     -5.760849297600     20.322929230700
     227   76  2  -0.35000     18.998598071500     -5.980174290400     20.401936128600
     228   76  2  -0.35000     21.271265629700     -5.541524304800     20.243922332700
     229   77  1   0.70000     18.533480468700      4.219812045330    -15.790287436000
     230   77  2  -0.35000     17.848383777200      3.777253315150    -14.965433331600
     231   77  2  -0.35000     19.218577160200      4.662370775510    -16.615141540500
     232   78  1   0.70000      9.162316457960    -15.995853569900      0.370888853690
     233   78  2  -0.35000      8.171137630410    -16.126346644600      0.959222168463
     234   78  2  -0.35000     10.153495285500    -15.865360495300     -0.217444461083
     235   79  1   0.70000     17.807251450000     18.276179987900      3.458397266200
     236   79  2  -0.35000     17.590283476200     19.222313027100      2.823293203540
     237   79  2  -0.35000     18.024219423800     17.330046948700      4.093501328850
     238   80  1   0.70000      8.027291927770     13.588715900400     14.025822669400
     239   80  2  -0.35000      8.046497620110     13.582972277000     15.185649446200
     240   80  2  -0.35000      8.008086235440     13.594459523800     12.865995892600
     241   81  1   0.70000    -16.857472533000     11.213739428800    -15.809897616800
     242   81  2  -0.35000    -17.707343658300     11.668706512200    -15.164665857400
     243   81  2  -0.35000    -16.007601407600     10.758772345300    -16.455129376200
     244   82  1   0.70000     -4.768997140760     -5.994364338900     -8.180601410810
     245   82  2  -0.35000     -4.102143500130     -5.185262858820     -8.676848342190
     246   82  2  -0.35000     -5.435850781380     -6.803465818990     -7.684354479420
     247   83  1   0.70000     19.714758686300     -8.200490900780     10.900036553200
     248   83  2  -0.35000     20.568339191700     -7.691082668570     11.497952578800
     249   83  2  -0.35000     18.861178180900     -8.709899133000     10.302120527500
     250   84  1   0.70000     18.270192113000    -17.787379910100     16.947709483200
     251   84  2  -0.35000     18.166331602100    -16.759886426700     16.419438590700
     252   84  2  -0.35000     18.374052623800    -18.814873393500     17.475980375800
     253   85  1   0.70000      6.892845730050     10.748922298100      6.136192886840
     254   85  2  -0.35000      7.013930669670      9.691452400650      6.597382493620
     255   85  2  -0.35000      6.771760790440     11.806392195500      5.675003280070
     256   86  1   0.70000     15.527926002900      2.019042709550     18.436851017000
     257   86  2  -0.35000     15.839671948000      1.961942811060     17.320986299700
     258   86  2  -0.35000     15.216180057800      2.076142608050     19.552715734300
     259   87  1   0.70000    -15.196913153100      7.193472472880      6.946743983600
     260   87  2  -0.35000    -14.549851674600      7.405400240050      7.885891503710
     261   87  2  -0.35000    -15.843974631600      6.981544705700      6.007596463500
     262   88  1   0.70000      9.616080970020      6.413223888120    -17.348568971100
     263   88  2  -0.35000      8.561837392280      6.723771390500    -16.977448064100
     264   88  2  -0.35000     10.670324547800      6.102676385740    -17.719689878000
     265   89  1   0.70000     10.689381507300    -20.313460225700     12.421147922100
     266   89  2  -0.35000      9.661708141290    -20.598132975700     12.877709942300
     267   89  2  -0.35000     11.717054873200    -20.028787475700     11.964585901900
     268   90  1   0.70000     -9.529132540680     -2.667809814500     -2.786683494850
     269   90  2  -0.35000    -10.352933458600     -3.317889115360     -3.281000144570
     270   90  2  -0.35000     -8.705331622740     -2.017730513630     -2.292366845130
     271   91  1   0.70000    -13.992887159600      3.423441237820     -8.630323979360
     272   91  2  -0.35000    -13.812367601800      4.566819089530     -8.705820850020
     273   91  2  -0.35000    -14.173406717300      2.280063386110     -8.554827108700
     274   92  1   0.70000     -0.544931602391     -9.253833130500     19.281295914000
     275   92  2  -0.35000      0.476807902977     -8.967991593170     18.812315105500
     276   92  2  -0.35000     -1.566671107760     -9.539674667830     19.750276722500
     277   93  1   0.70000     -8.013717945620    -13.049138240200     15.079457717200
     278   93  2  -0.35000     -8.548436980100    -13.145511153900     16.104342011000
     279   93  2  -0.35000     -7.478998911130    -12.952765326500     14.054573423400
     280   94  1   0.70000    -20.702715560300     11.359137170300     -4.120966321350
     281   94  2  -0.35000    -19.948868684800     12.191634006600     -4.411248780140
     282   94  2  -0.35000    -21.456562435863     10.526640334000     -3.830683862560
     283   95  1   0.70000      6.675717563750    -17.159275425600    -14.914848428400
     284   95  2  -0.35000      6.331604638580    -16.453021091300    -15.768306751900
     285   95  2  -0.35000      7.019830488920    -17.865529759800    -14.061390104800
     286   96  1   0.70000     -4.011872909380     10.288449278600    -14.710717385900
     287   96  2  -0.35000     -4.243285539150     10.466170904900    -13.588013855000
     288   96  2  -0.35000     -3.780460279600     10.110727652400    -15.833420916800
     289   97  1   0.70000     -8.735993892980      6.719166884460    -16.133068183300
     290   97  2  -0.35000     -9.768651476220      7.062603304380    -16.534652223300
     291   97  2  -0.35000     -7.703336309730      6.375730464540    -15.731484143200
     292   98  1   0.70000      3.535473667900     -8.075042634980     -9.153926186150
     293   98  2  -0.35000      4.269956328410     -8.395886073400     -9.992493243360
     294   98  2  -0.35000      2.800991007400     -7.754199196570     -8.315359128930
     295   99  1   0.70000     14.172011105200     -1.521508871570      1.023309077410
     296   99  2  -0.35000     13.312497936400     -1.161997527720      1.714387008070
     297   99  2  -0.35000     15.031524274100     -1.881020215430      0.332231146757
     298  100  1   0.70000     14.741814758000     -7.635529559220     -5.808635575010
     299  100  2  -0.35000     14.163601213600     -6.651730654730     -5.600287758710
     300  100  2  -0.35000     15.320028302400     -8.619328463720     -6.016983391310
     301  101  1   0.70000     18.840444725800     10.807201148300      9.752586281940
     302  101  2  -0.35000     18.834122163400     11.966226730200      9.705472316160
     303  101  2  -0.35000     18.846767288200      9.648175566440      9.799700247710
     304  102  1   0.70000    -16.561404897400     19.451042851800     -1.838009791820
     305  102  2  -0.35000    -15.617664871000     19.983877805400     -2.251581641420
     306  102  2  -0.35000    -17.505144923800     18.918207898200     -1.424437942210
     307  103  1   0.70000      6.162729813600      2.169779838360      6.788795687460
     308  103  2  -0.35000      5.469778208100      2.280106369010      5.865082458650
     309  103  2  -0.35000      6.855681419090      2.059453307710      7.712508916270
     310  104  1   0.70000    -20.588436874900      0.270122548138     20.111295723800
     311  104  2  -0.35000    -20.142678002700      1.253612420000     19.687448227900
     312  104  2  -0.35000    -21.034195747100     -0.713367323723     20.535143219700
     313  105  1   0.70000    -13.382541345700     -2.610334498560    -19.143249524400
     314  105  2  -0.35000    -13.542197538700     -2.659617018760    -20.291152452900
     315  105  2  -0.35000    -13.222885152600     -2.561051978350    -17.995346595900
     316  106  1   0.70000     -8.983854178390    -14.866931334000    -19.040586779700
     317  106  2  -0.35000     -8.989749743120    -15.650710770800    -19.895721293600
     318  106  2  -0.35000     -8.977958613660    -14.083151897300    -18.185452265800
     319  107  1   0.70000     -0.582561256863    -12.373469805800      1.303446515110
     320  107  2  -0.35000     -1.198567554930    -11.474294016900      0.906433742633
     321  107  2  -0.35000      0.033445041201    -13.272645594600      1.700459287600
     322  108  1   0.70000    -10.293744450400    -10.951820214600     -0.694011688568
     323  108  2  -0.35000    -10.141804252500     -9.812382538050     -0.538461190133
     324  108  2  -0.35000    -10.445684648200    -12.091257891100     -0.849562187003
     325  109  1   0.70000      9.048536555760    -14.792891306300      6.945971581230
     326  109  2  -0.35000     10.189321120100    -14.823529853700      6.737952694720
     327  109  2  -0.35000      7.907751991410    -14.762252759000      7.153990467740
     328  110  1   0.70000      1.191202041750      0.641928169311     21.249310194400
     329  110  2  -0.35000      2.291968645200      0.518405196925     21.593773487063
     330  110  2  -0.35000      0.090435438310      0.765451141698     20.904846901600
     331  111  1   0.70000     17.667094613100      4.162152222020      8.218553507250
     332  111  2  -0.35000     17.625729120400      3.440783182220      9.126031112720
     333  111  2  -0.35000     17.708460105700      4.883521261830      7.311075901770
     334  112  1   0.70000    -21.035008861000      2.144043769280      0.478863017851
     335  112  2  -0.35000    -20.305828867500      1.453990825240     -0.102276785922
     336  112  2  -0.35000    -21.764188854463      2.834096713310      1.060002821620
     337  113  1   0.70000     -1.658151615730    -12.026405425000     -7.024231800420
     338  113  2  -0.35000     -0.747551995160    -11.597682320300     -6.447512778300
     339  113  2  -0.35000     -2.568751236300    -12.455128529800     -7.600950822530
     340  114  1   0.70000      3.537381545010     16.737781554200      9.295181033180