LAMMPS Atom File

         3000 atoms
         2000 bonds
         1000 angles
           0 dihedrals
           0 impropers

           2 atom types
           1 bond types
           1 angle types

         0.0  321.434892276 xlo xhi
         0.0  321.434892276 ylo yhi
         0.0  321.434892276 zlo zhi

Masses

         1   12.01070
         2   15.99990

Atoms

       1    1  1   0.70000    -90.865538731500    124.899635695000   -126.571783088000
       2    1  2  -0.35000    -91.625292450600    124.131657814000   -126.149190777000
       3    1  2  -0.35000    -90.105785012500    125.667613575000   -126.994375400000
       4    2  1   0.70000    137.608680869000     70.201765083200   -136.903887429000
       5    2  2  -0.35000    137.305146366000     69.147585360000   -136.526830514000
       6    2  2  -0.35000    137.912215372000     71.255944806400   -137.280944343000
       7    3  1   0.70000     39.701545479200    120.509494288000      7.100503522550
       8    3  2  -0.35000     40.126604048100    121.014020926000      6.146366171970
       9    3  2  -0.35000     39.276486910300    120.004967649000      8.054640873140
      10    4  1   0.70000    -47.129849412000     65.714440752400   -159.278866649000
      11    4  2  -0.35000    -46.840198097000     66.338827512000   -160.212592138000
      12    4  2  -0.35000    -47.419500727000     65.090053992900   -158.345141159000
      13    5  1   0.70000   -141.586760315000     89.889697654700    -64.992821349300
      14    5  2  -0.35000   -142.700140365000     90.033721553000    -64.700859056300
      15    5  2  -0.35000   -140.473380264000     89.745673756300    -65.284783642300
      16    6  1   0.70000     86.620346044800     -6.089876269480    -38.238188008000
      17    6  2  -0.35000     87.307017750600     -6.796002598390    -38.850942099000
      18    6  2  -0.35000     85.933674338900     -5.383749940560    -37.625433916900
      19    7  1   0.70000     21.467279448400   -125.334886984000    143.187222741000
      20    7  2  -0.35000     21.126311273800   -125.760695393000    142.163490402000
      21    7  2  -0.35000     21.808247623000   -124.909078576000    144.210955081000
      22    8  1   0.70000    -53.714723620300   -153.373959107000    -69.586746123000
      23    8  2  -0.35000    -53.870915597200   -153.818939574000    -70.646555752400
      24    8  2  -0.35000    -53.558531643400   -152.928978641000    -68.526936493500
      25    9  1   0.70000    -38.328844753000     16.916211797000     84.441925989100
      26    9  2  -0.35000    -38.772736366800     15.952380925800     84.910530606000
      27    9  2  -0.35000    -37.884953139100     17.880042668200     83.973321372300
      28   10  1   0.70000     72.380005956700    -91.555281872700   -145.164332195000
      29   10  2  -0.35000     71.350901807200    -91.152275111900   -145.516653356000
      30   10  2  -0.35000     73.409110106200    -91.958288633500   -144.812011034000
      31   11  1   0.70000    -83.944475412700    156.031976805000     29.916595819000
      32   11  2  -0.35000    -83.694531369200    155.227815576000     29.118815966400
      33   11  2  -0.35000    -84.194419456200    156.836138034000     30.714375671600
      34   12  1   0.70000    -69.997361679300    111.162005863000     16.519967133200
      35   12  2  -0.35000    -69.868807467600    111.617457254000     17.579041183900
      36   12  2  -0.35000    -70.125915891000    110.706554472000     15.460893082400
      37   13  1   0.70000     97.695347890500      5.266235096970     29.913128475100
      38   13  2  -0.35000     97.036141019500      4.711898257620     29.136110476700
      39   13  2  -0.35000     98.354554761500      5.820571936330     30.690146473400
      40   14  1   0.70000   -156.665115349000    -66.175007225800    116.207807961000
      41   14  2  -0.35000   -156.223846848000    -65.230222159400    116.716004073000
      42   14  2  -0.35000   -157.106383850000    -67.119792292200    115.699611849000
      43   15  1   0.70000    149.161358237000    100.191937706000   -102.896518497000
      44   15  2  -0.35000    148.793277814000    100.226463252000   -101.797007338000
      45   15  2  -0.35000    149.529438661000    100.157412160000   -103.996029656000
      46   16  1   0.70000    -80.523381475800     91.403861238500    125.197908759000
      47   16  2  -0.35000    -81.249094830600     90.692339848900    124.638733081000
      48   16  2  -0.35000    -79.797668121000     92.115382628000    125.757084437000
      49   17  1   0.70000    -11.549025789700    114.460643096000     89.362737223800
      50   17  2  -0.35000    -12.286804030100    114.024745950000     88.580895202200
      51   17  2  -0.35000    -10.811247549300    114.896540241000     90.144579245300
      52   18  1   0.70000     17.312589910200    145.181933410000   -129.132929822000
      53   18  2  -0.35000     16.646488623300    145.202459208000   -128.183462725000
      54   18  2  -0.35000     17.978691197000    145.161407612000   -130.082396918000
      55   19  1   0.70000    150.960936895000     35.523392183000    127.863420622000
      56   19  2  -0.35000    151.962544266000     35.327469442100    127.312061436000
      57   19  2  -0.35000    149.959329523000     35.719314924000    128.414779809000
      58   20  1   0.70000    -98.892033933100    130.457928764000   -131.939033269000
      59   20  2  -0.35000    -97.996180985200    130.140584449000   -131.273946747000
      60   20  2  -0.35000    -99.787886881100    130.775273078000   -132.604119792000
      61   21  1   0.70000    -75.225349075700   -139.647582196000     37.188200458100
      62   21  2  -0.35000    -75.001252104300   -140.155103303000     36.169474354700
      63   21  2  -0.35000    -75.449446047100   -139.140061089000     38.206926561500
      64   22  1   0.70000    -13.395071247600   -137.015093537000   -149.748740538000
      65   22  2  -0.35000    -14.492104803100   -136.659730699000   -149.622904806000
      66   22  2  -0.35000    -12.298037692100   -137.370456375000   -149.874576269000
      67   23  1   0.70000     -1.108002322150     33.659519674100    111.734925881000
      68   23  2  -0.35000     -0.534598568046     32.951189466800    111.017237612000
      69   23  2  -0.35000     -1.681406076250     34.367849881400    112.452614151000
      70   24  1   0.70000      1.946757789280    -31.530111324000    -19.584272417500
      71   24  2  -0.35000      1.760630472180    -30.580903074200    -18.943990979100
      72   24  2  -0.35000      2.132885106380    -32.479319573800    -20.224553855900
      73   25  1   0.70000     34.850271350400    130.057805042000     16.460933036600
      74   25  2  -0.35000     35.727869767700    129.337937851000     16.700123849200
      75   25  2  -0.35000     33.972672933200    130.777672233000     16.221742223900
      76   26  1   0.70000    -69.529991952400     70.610669203900   -125.546736653000
      77   26  2  -0.35000    -70.348279604600     71.394967002000   -125.299993300000
      78   26  2  -0.35000    -68.711704300200     69.826371405900   -125.793480006000
      79   27  1   0.70000    157.653517842000   -130.028422681000    120.598345952000
      80   27  2  -0.35000    157.362221276000   -129.253206605000    121.410618287000
      81   27  2  -0.35000    157.944814408000   -130.803638757000    119.786073618000
      82   28  1   0.70000    -19.680516538300      2.131710153950     81.056963184000
      83   28  2  -0.35000    -20.001441939500      1.682489805240     80.036763220600
      84   28  2  -0.35000    -19.359591137100      2.580930502660     82.077163147300
      85   29  1   0.70000    122.527612772000    -61.443756204700      2.391007419070
      86   29  2  -0.35000    123.404228808000    -61.924715288400      1.802940515020
      87   29  2  -0.35000    121.650996735000    -60.962797121000      2.979074323120
      88   30  1   0.70000    139.451615236000    105.786251014000    144.397117479000
      89   30  2  -0.35000    139.650982374000    106.375493853000    145.376221979000
      90   30  2  -0.35000    139.252248097000    105.197008176000    143.418012980000
      91   31  1   0.70000    -33.067578916300    -75.629578900900   -136.989779424000
      92   31  2  -0.35000    -33.545172135500    -74.932927428000   -137.784877810000
      93   31  2  -0.35000    -32.589985697200    -76.326230373800   -136.194681039000
      94   32  1   0.70000     69.624828653100   -127.426235282000   -131.459779568000
      95   32  2  -0.35000     69.659105816600   -127.807378824000   -132.554838780000
      96   32  2  -0.35000     69.590551489700   -127.045091740000   -130.364720357000
      97   33  1   0.70000   -146.132713978000    -49.414809805300   -115.669603509000
      98   33  2  -0.35000   -145.431838057000    -49.046214187900   -114.821953691000
      99   33  2  -0.35000   -146.833589899000    -49.783405422700   -116.517253328000
     100   34  1   0.70000    104.250305246000   -131.999081695000     15.920617108000
     101   34  2  -0.35000    103.708901839000   -132.123557829000     16.938943206400
     102   34  2  -0.35000    104.791708654000   -131.874605561000     14.902291009700
     103   35  1   0.70000     53.856663228000   -150.816023811000    -93.618558350700
     104   35  2  -0.35000     54.437152057800   -150.471095463000    -92.675341963600
     105   35  2  -0.35000     53.276174398200   -151.160952160000    -94.561774737800
     106   36  1   0.70000     31.940107879100     75.728711447000    -87.181335545100
     107   36  2  -0.35000     31.091380305100     76.131714887800    -86.501004940200
     108   36  2  -0.35000     32.788835453000     75.325708006200    -87.861666150000
     109   37  1   0.70000    120.983232825000   -145.477413841000    100.268842400000
     110   37  2  -0.35000    122.058022511000   -145.832366811000    100.015000877000
     111   37  2  -0.35000    119.908443139000   -145.122460870000    100.522683924000
     112   38  1   0.70000    -28.791271562300   -145.583672132000     91.216659033300
     113   38  2  -0.35000    -27.822501970500   -145.130493289000     91.665785311300
     114   38  2  -0.35000    -29.760041154200   -146.036850976000     90.767532755300
     115   39  1   0.70000    111.150019801000    -17.061706325400   -141.984278233000
     116   39  2  -0.35000    111.901457732000    -16.964053528600   -142.862574862000
     117   39  2  -0.35000    110.398581871000    -17.159359122300   -141.105981605000
     118   40  1   0.70000    -46.116447873500   -102.545868588000    -19.811384399600
     119   40  2  -0.35000    -47.001687242400   -102.838034741000    -19.121029274500
     120   40  2  -0.35000    -45.231208504600   -102.253702435000    -20.501739524700
     121   41  1   0.70000    118.274430183000   -147.526295618000     47.844998277000
     122   41  2  -0.35000    117.188058095000   -147.251410027000     47.545275743300
     123   41  2  -0.35000    119.360802272000   -147.801181209000     48.144720810700
     124   42  1   0.70000    111.181841997000    117.365303466000    -45.226866555500
     125   42  2  -0.35000    111.766463576000    117.970030368000    -44.428040552200
     126   42  2  -0.35000    110.597220417000    116.760576565000    -46.025692558800
     127   43  1   0.70000   -110.669107314000    -69.210667309200    -91.869915311600
     128   43  2  -0.35000   -111.587925160000    -69.430597087600    -91.196859104300
     129   43  2  -0.35000   -109.750289468000    -68.990737530800    -92.542971519000
     130   44  1   0.70000   -128.076855138000   -148.646087974000     17.865205008000
     131   44  2  -0.35000   -128.259596381000   -149.128644408000     18.904120272400
     132   44  2  -0.35000   -127.894113896000   -148.163531540000     16.826289743700
     133   45  1   0.70000     84.675802527400    -78.515052190800    -76.838159584100
     134   45  2  -0.35000     85.683986206600    -78.022023475000    -77.131567754600
     135   45  2  -0.35000     83.667618848300    -79.008080906600    -76.544751413600
     136   46  1   0.70000    150.758615156000     40.803868128500    -46.367233641300
     137   46  2  -0.35000    150.346640325000     39.801659560000    -45.953162724300
     138   46  2  -0.35000    151.170589986000     41.806076697000    -46.781304558200
     139   47  1   0.70000    -15.359469357300      2.365465076410      9.545798581320
     140   47  2  -0.35000    -16.094670275700      2.377160864880     10.442984636800
     141   47  2  -0.35000    -14.624268438800      2.353769287940      8.648612525880
     142   48  1   0.70000     74.852806098300    -51.207528309100     76.104710584000
     143   48  2  -0.35000     75.455173827900    -50.266037886100     75.794309389200
     144   48  2  -0.35000     74.250438368700    -52.149018732100     76.415111778800
     145   49  1   0.70000    115.444867568000     67.849349273700   -129.846907791000
     146   49  2  -0.35000    116.273014579000     68.296854855400   -129.169035176000
     147   49  2  -0.35000    114.616720557000     67.401843692100   -130.524780406000
     148   50  1   0.70000     44.178764207100   -115.555312457000    132.069009600000
     149   50  2  -0.35000     43.285881592600   -114.859534624000    131.815526181000
     150   50  2  -0.35000     45.071646821600   -116.251090290000    132.322493020000
     151   51  1   0.70000     10.321981339700     32.704506603000    159.574985234000
     152   51  2  -0.35000     11.279359016100     32.245826452400    159.107395131000
     153   51  2  -0.35000      9.364603663360     33.163186753600    160.042575337000
     154   52  1   0.70000   -123.110221248000     48.793029108600     93.375474588500
     155   52  2  -0.35000   -121.981614754000     48.658744464000     93.607455229000
     156   52  2  -0.35000   -124.238827741000     48.927313753200     93.143493948000
     157   53  1   0.70000     -9.469814689760    158.316593540000    -72.604078819200
     158   53  2  -0.35000     -9.149295136600    159.347829382000    -73.027658627600
     159   53  2  -0.35000     -9.790334242920    157.285357697000    -72.180499010700
     160   54  1   0.70000   -125.009338465000     35.538929671000    -31.230304058100
     161   54  2  -0.35000   -123.981196469000     35.139983856500    -31.589979292600
     162   54  2  -0.35000   -126.037480460000     35.937875485600    -30.870628823700
     163   55  1   0.70000   -110.920536674000   -156.342952947000    -49.472042098700
     164   55  2  -0.35000   -111.134597552000   -155.861455926000    -50.505453226800
     165   55  2  -0.35000   -110.706475795000   -156.824449967000    -48.438630970600
     166   56  1   0.70000     17.720010076400   -145.722215481000   -156.665846792000
     167   56  2  -0.35000     18.131435721400   -146.298427940000   -157.584709208000
     168   56  2  -0.35000     17.308584431400   -145.146003021000   -155.746984375000
     169   57  1   0.70000    120.666647489000    -70.301725957300     60.665312983500
     170   57  2  -0.35000    120.488927602000    -69.162644098100     60.793797068200
     171   57  2  -0.35000    120.844367375000    -71.440807816500     60.536828898700
     172   58  1   0.70000    119.969330622000     49.878856920300   -115.305726914000
     173   58  2  -0.35000    119.883287042000     49.804768514300   -114.151297440000
     174   58  2  -0.35000    120.055374202000     49.952945326300   -116.460156388000
     175   59  1   0.70000    -46.643371693900     72.556539936800   -118.860175207000
     176   59  2  -0.35000    -45.657994383000     73.050548612800   -118.498806997000
     177   59  2  -0.35000    -47.628749004800     72.062531260700   -119.221543417000
     178   60  1   0.70000     22.626040039300    -62.716562546100    -14.050538670400
     179   60  2  -0.35000     23.540845011400    -62.222589317400    -14.565050392800
     180   60  2  -0.35000     21.711235067300    -63.210535774900    -13.536026948100
     181   61  1   0.70000    -73.599460051700     90.042079841000   -160.701178330000
     182   61  2  -0.35000    -73.628120113400     90.296249202100   -159.569729464000
     183   61  2  -0.35000    -73.570799989900     89.787910479900   -161.832627196755
     184   62  1   0.70000    -84.062620595300      7.143299109890    -77.696161937500
     185   62  2  -0.35000    -83.695229511700      6.723083370290    -78.713040752200
     186   62  2  -0.35000    -84.430011678900      7.563514849490    -76.679283122700
     187   63  1   0.70000    -46.751219111000     63.578281156300   -148.721775601000
     188   63  2  -0.35000    -45.652295234600     63.695440046800   -148.369298497000
     189   63  2  -0.35000    -47.850142987300     63.461122265800   -149.074252704000
     190   64  1   0.70000   -151.760087797000   -151.971979770000   -117.679888843000
     191   64  2  -0.35000   -151.644338879000   -150.917683842000   -117.210141799000
     192   64  2  -0.35000   -151.875836714000   -153.026275697000   -118.149635887000
     193   65  1   0.70000   -104.425166748000     90.079582773600     26.043803189200
     194   65  2  -0.35000   -104.639292883000     89.406432210300     26.963921832100
     195   65  2  -0.35000   -104.211040612000     90.752733336900     25.123684546300
     196   66  1   0.70000     -1.814248959660    -74.924126440100   -144.252804746000
     197   66  2  -0.35000     -1.370998958150    -74.823189784400   -145.320016641000
     198   66  2  -0.35000     -2.257498961170    -75.025063095800   -143.185592852000
     199   67  1   0.70000     66.144640328200    117.276924651000   -114.273662074000
     200   67  2  -0.35000     65.086554925500    117.606948362000   -114.615918748000
     201   67  2  -0.35000     67.202725730800    116.946900941000   -113.931405399000
     202   68  1   0.70000   -133.964080286000     78.507409383100    -63.972571543600
     203   68  2  -0.35000   -133.045049848000     79.080324389700    -63.556937751700
     204   68  2  -0.35000   -134.883110724000     77.934494376400    -64.388205335500
     205   69  1   0.70000    157.380793030000   -147.523099217000    -61.205521677600
     206   69  2  -0.35000    157.224772838000   -148.082632622000    -60.201439973900
     207   69  2  -0.35000    157.536813223000   -146.963565811000    -62.209603381300
     208   70  1   0.70000    -27.899871211900     70.996198907700     63.244158881300
     209   70  2  -0.35000    -28.852404320100     71.535565860800     62.860278733600
     210   70  2  -0.35000    -26.947338103800     70.456831954500     63.628039028900
     211   71  1   0.70000   -156.901048226000   -130.630415936000    158.119532170000
     212   71  2  -0.35000   -158.039601721000   -130.849395024000    158.156194139000
     213   71  2  -0.35000   -155.762494732000   -130.411436849000    158.082870202000
     214   72  1   0.70000     40.847218697900   -114.361356957000     42.060483046100
     215   72  2  -0.35000     40.633162495400   -113.770414324000     43.035453171700
     216   72  2  -0.35000     41.061274900500   -114.952299591000     41.085512920500
     217   73  1   0.70000    -94.316466766900    -74.121734340100     16.776803539000
     218   73  2  -0.35000    -95.252225233800    -74.529791459800     17.327662394400
     219   73  2  -0.35000    -93.380708300000    -73.713677220300     16.225944683500
     220   74  1   0.70000    -64.848540971900    -72.853103903900     30.516978554900
     221   74  2  -0.35000    -64.556571446800    -72.441185386000     31.561333346700
     222   74  2  -0.35000    -65.140510497100    -73.265022421700     29.472623763200
     223   75  1   0.70000   -103.062439213000    -45.119436264600     71.284125674500
     224   75  2  -0.35000   -102.882742905000    -44.491376457600     70.325558976000
     225   75  2  -0.35000   -103.242135522000    -45.747496071600     72.242692372900
     226   76  1   0.70000   -143.993936836000    -52.048433723900    -34.259417211500
     227   76  2  -0.35000   -143.184332945000    -51.993963160800    -33.430457322800
     228   76  2  -0.35000   -144.803540727000    -52.102904287000    -35.088377100100
     229   77  1   0.70000   -139.092131215000     19.212636239500    125.711273133000
     230   77  2  -0.35000   -138.914477039000     18.361563980400    124.943344098000
     231   77  2  -0.35000   -139.269785390000     20.063708498600    126.479202169000
     232   78  1   0.70000    -51.382007501700   -132.516700695000     61.575318435000
     233   78  2  -0.35000    -51.349640342300   -133.373976705000     60.794530237300
     234   78  2  -0.35000    -51.414374661000   -131.659424685000     62.356106632700
     235   79  1   0.70000    -64.645009557700     30.845672121000    -59.807753143200
     236   79  2  -0.35000    -65.289320846800     31.647325369200    -60.344237096800
     237   79  2  -0.35000    -64.000698268700     30.044018872800    -59.271269189600
     238   80  1   0.70000    -39.300933037000   -111.231617496000     38.393547136300
     239   80  2  -0.35000    -39.467301201700   -111.262739106000     39.541132897400
     240   80  2  -0.35000    -39.134564872300   -111.200495885000     37.245961375200
     241   81  1   0.70000    147.032309207000    -37.795221212300    148.385834013000
     242   81  2  -0.35000    146.550752143000    -37.687003578600    149.435591956000
     243   81  2  -0.35000    147.513866271000    -37.903438846000    147.336076071000
     244   82  1   0.70000    139.631396298000     43.104877021800   -123.244977119000
     245   82  2  -0.35000    139.785841395000     42.514090964400   -122.258712172000
     246   82  2  -0.35000    139.476951201000     43.695663079100   -124.231242067000
     247   83  1   0.70000     86.230512847500    -97.669091532200      1.765639035900
     248   83  2  -0.35000     85.135020196500    -97.851755600700      1.430781320280
     249   83  2  -0.35000     87.326005498500    -97.486427463700      2.100496751530
     250   84  1   0.70000    142.085679532000    102.938811959000     31.724929969800
     251   84  2  -0.35000    141.828867916000    103.671042184000     32.587186713400
     252   84  2  -0.35000    142.342491148000    102.206581735000     30.862673226300
     253   85  1   0.70000     99.846367892300     95.799821959100    102.906507340000
     254   85  2  -0.35000    100.684990637000     95.583095311200    103.678091070000
     255   85  2  -0.35000     99.007745147700     96.016548607000    102.134923610000
     256   86  1   0.70000   -106.399837186000     97.985981528700   -119.570364508000
     257   86  2  -0.35000   -105.527402152000     98.742696099000   -119.679177053000
     258   86  2  -0.35000   -107.272272221000     97.229266958500   -119.461551962000
     259   87  1   0.70000    101.051096011000   -130.970325835000    106.416998523000
     260   87  2  -0.35000    101.845414183000   -131.248469406000    105.618691066000
     261   87  2  -0.35000    100.256777839000   -130.692182264000    107.215305979000
     262   88  1   0.70000    -55.799241207800    -79.979963777200    -50.769434174100
     263   88  2  -0.35000    -54.768133061300    -79.601533518800    -50.396330261400
     264   88  2  -0.35000    -56.830349354400    -80.358394035500    -51.142538086800
     265   89  1   0.70000   -152.644421950000    -56.121707023100     90.005176235300
     266   89  2  -0.35000   -153.008353520000    -56.703299657900     90.940539169900
     267   89  2  -0.35000   -152.280490379000    -55.540114388300     89.069813300700
     268   90  1   0.70000    151.484952947000   -115.513621518000    138.090427806000
     269   90  2  -0.35000    150.507931976000   -115.521771156000    138.715698632000
     270   90  2  -0.35000    152.461973919000   -115.505471881000    137.465156981000
     271   91  1   0.70000     51.462813010700     76.944399982000     61.059814350900
     272   91  2  -0.35000     50.977468139800     76.565810181400     62.043028528500
     273   91  2  -0.35000     51.948157881600     77.322989782700     60.076600173200
     274   92  1   0.70000    120.673503610000     15.563183464800    150.327751238000
     275   92  2  -0.35000    121.491541003000     15.295342421800    149.550142082000
     276   92  2  -0.35000    119.855466218000     15.831024507800    151.105360395000
     277   93  1   0.70000   -102.523470831000     48.914592879600     67.236377780400
     278   93  2  -0.35000   -102.921628938000     49.921156291800     66.819364328500
     279   93  2  -0.35000   -102.125312724000     47.908029467500     67.653391232300
     280   94  1   0.70000     74.560888509600     54.483320445000   -154.564177988000
     281   94  2  -0.35000     74.015607852700     54.700792104700   -155.564665411000
     282   94  2  -0.35000     75.106169166400     54.265848785200   -153.563690566000
     283   95  1   0.70000     57.879177483700    153.376158259000     80.801136921700
     284   95  2  -0.35000     57.830802289900    152.995558973000     81.895853334400
     285   95  2  -0.35000     57.927552677500    153.756757545000     79.706420509000
     286   96  1   0.70000    -65.442420634500    -20.150674486400    -20.709580562200
     287   96  2  -0.35000    -65.791085866600    -20.700810015500    -21.669467772100
     288   96  2  -0.35000    -65.093755402500    -19.600538957400    -19.749693352400
     289   97  1   0.70000   -111.237103424000     38.225247791500    -65.120227546900
     290   97  2  -0.35000   -110.089610202000     38.073561476300    -65.043738550000
     291   97  2  -0.35000   -112.384596646000     38.376934106800    -65.196716543900
     292   98  1   0.70000    -17.234001320200    -89.367023072100    151.985046700000
     293   98  2  -0.35000    -17.149383475800    -88.538804606000    152.792817702000
     294   98  2  -0.35000    -17.318619164500    -90.195241538100    151.177275697000
     295   99  1   0.70000    -72.186145334100   -104.614503176000    127.867415455000
     296   99  2  -0.35000    -71.317395138200   -105.338448176000    128.125827403000
     297   99  2  -0.35000    -73.054895530100   -103.890558177000    127.609003506000
     298  100  1   0.70000    160.664417377000     82.111272461000    -29.915850275100
     299  100  2  -0.35000    161.558004404755     81.437341787700    -30.220677557900
     300  100  2  -0.35000    159.770830350000     82.785203134200    -29.611022992200
     301  101  1   0.70000     68.019327685800   -140.518779898000    -93.526269940500
     302  101  2  -0.35000     67.072352299300   -139.901072214000    -93.266896013000
     303  101  2  -0.35000     68.966303072400   -141.136487582000    -93.785643868100
     304  102  1   0.70000    -52.734669274400     43.757117526600    -93.413437524000
     305  102  2  -0.35000    -53.531831245900     44.296205717700    -92.765736425200
     306  102  2  -0.35000    -51.937507302900     43.218029335400    -94.061138622700
     307  103  1   0.70000    -66.179153155400     51.045016371200   -148.741049020000
     308  103  2  -0.35000    -65.789568413800     50.974136082200   -149.831369942000
     309  103  2  -0.35000    -66.568737897000     51.115896660200   -147.650728097000
     310  104  1   0.70000      5.840612577030    -48.318976636400    -70.239162828600
     311  104  2  -0.35000      5.448773544150    -47.761519038900    -71.177940331200
     312  104  2  -0.35000      6.232451609920    -48.876434233900    -69.300385326100
     313  105  1   0.70000    118.765889200000    -48.577268087300     -4.486946960240
     314  105  2  -0.35000    118.873188919000    -49.210925371900     -5.452641123000
     315  105  2  -0.35000    118.658589480000    -47.943610802800     -3.521252797490
     316  106  1   0.70000     85.061511036800      0.723576500484     28.050635679800
     317  106  2  -0.35000     84.666304500500     -0.366911948928     28.066343492900
     318  106  2  -0.35000     85.456717573000      1.814064949890     28.034927866700
     319  107  1   0.70000    123.703240703000    -59.916679554400    -11.005438394100
     320  107  2  -0.35000    123.070750780000    -59.556729375400    -11.908761352000
     321  107  2  -0.35000    124.335730626000    -60.276629733300    -10.102115436300
     322  108  1   0.70000    130.408840048000     74.914663329000     52.743201981800
     323  108  2  -0.35000    130.883588219000     74.053202310700     53.358099605800
     324  108  2  -0.35000    129.934091877000     75.776124347300     52.128304357800
     325  109  1   0.70000   -150.379813501000   -152.193669059000     -0.731532887646
     326  109  2  -0.35000   -149.563038696000   -152.904628922000     -1.147483595660
     327  109  2  -0.35000   -151.196588307000   -151.482709197000     -0.315582179635
     328  110  1   0.70000    105.103635483000    119.019707595000    -59.659467909600
     329  110  2  -0.35000    104.625810331000    118.859126095000    -60.704215106800
     330  110  2  -0.35000    105.581460635000    119.180289095000    -58.614720712500
     331  111  1   0.70000     46.597966567800      6.264306122060     40.582091230100
     332  111  2  -0.35000     45.759869950000      5.463043120010     40.547861698700
     333  111  2  -0.35000     47.436063185600      7.065569124120     40.616320761600
     334  112  1   0.70000    -47.664690164600     34.202683421000   -104.336357119000
     335  112  2  -0.35000    -48.665298379600     34.649109677300   -103.955454510000
     336  112  2  -0.35000    -46.664081949600     33.756257164700   -104.717259729000
     337  113  1   0.70000    142.302986005000    123.536807191000    145.090213804000
     338  113  2  -0.35000    142.985059503000    122.651707696000    144.778806311000
     339  113  2  -0.35000    141.620912507000    124.421906687000    145.401621298000
     340  114  1   0.70000    150.603041924000      7.434777420830   -156.431372559000