LAMMPS Atom File

         3000 atoms
         2000 bonds
         1000 angles
           0 dihedrals
           0 impropers

           2 atom types
           1 bond types
           1 angle types

         0.0  46.5145015836 xlo xhi
         0.0  46.5145015836 ylo yhi
         0.0  46.5145015836 zlo zhi

Masses

         1   12.01070
         2   15.99990

Atoms

       1    1  1   0.70000    -12.729809667100     17.010106727500    -18.196521903900
       2    1  2  -0.35000    -13.716887821400     16.914417349000    -17.594757614500
       3    1  2  -0.35000    -11.742731512700     17.105796106000    -18.798286193300
       4    2  1   0.70000      5.454274270910     16.990806484800     -1.652184084900
       5    2  2  -0.35000      5.153589806130     16.928177838200     -2.770784328630
       6    2  2  -0.35000      5.754958735680     17.053435131400     -0.533583841174
       7    3  1   0.70000     -6.143921245770     11.193957782200    -21.141764201100
       8    3  2  -0.35000     -6.126080156850     10.333216450700    -20.364328637300
       9    3  2  -0.35000     -6.161762334690     12.054699113600    -21.919199764900
      10    4  1   0.70000    -19.279291892000     13.861605721200    -10.159286403300
      11    4  2  -0.35000    -20.369483093600     14.257930398800    -10.162431830300
      12    4  2  -0.35000    -18.189100690300     13.465281043500    -10.156140976400
      13    5  1   0.70000      8.506187461680      2.738403842070     -8.282191984300
      14    5  2  -0.35000      9.189483744970      1.950773033080     -7.773916568830
      15    5  2  -0.35000      7.822891178390      3.526034651060     -8.790467399770
      16    6  1   0.70000      2.552355664710    -16.314330493700     21.054901790400
      17    6  2  -0.35000      3.267189583180    -17.033891735400     20.492012735100
      18    6  2  -0.35000      1.837521746240    -15.594769252100     21.617790845700
      19    7  1   0.70000     -5.633709323280     20.515655147100     -9.959862527630
      20    7  2  -0.35000     -6.245039274850     20.266444717700    -10.913681091200
      21    7  2  -0.35000     -5.022379371710     20.764865576400     -9.006043964060
      22    8  1   0.70000     -3.558654342960      5.528953337140      9.467091368000
      23    8  2  -0.35000     -3.514907250830      4.617547710200     10.183349683900
      24    8  2  -0.35000     -3.602401435090      6.440358964070      8.750833052080
      25    9  1   0.70000      4.881812117120    -11.781784196100     14.905776918600
      26    9  2  -0.35000      4.655099117260    -12.800052707300     15.413054411400
      27    9  2  -0.35000      5.108525116970    -10.763515684900     14.398499425800
      28   10  1   0.70000    -12.293370299000     21.922624716300      3.064321221850
      29   10  2  -0.35000    -11.505447663000     21.102797593800      3.293801959390
      30   10  2  -0.35000    -13.081292935000     22.742451838800      2.834840484310
      31   11  1   0.70000     -5.882606157230     19.746282850000      7.497850883270
      32   11  2  -0.35000     -5.414520566810     19.239255685200      8.430277467060
      33   11  2  -0.35000     -6.350691747650     20.253310014800      6.565424299480
      34   12  1   0.70000     13.786855196900      0.725153796574      3.970352434280
      35   12  2  -0.35000     13.824071350100      1.877276269090      3.840626699530
      36   12  2  -0.35000     13.749639043700     -0.426968675946      4.100078169030
      37   13  1   0.70000    -14.934068602800     -9.111783156680     14.944454852100
      38   13  2  -0.35000    -14.362677906000     -8.155928311920     14.619717747200
      39   13  2  -0.35000    -15.505459299700    -10.067638001400     15.269191957000
      40   14  1   0.70000     19.616587322000     12.165693048500    -16.424419362700
      41   14  2  -0.35000     18.684444507400     12.756426923200    -16.781831257500
      42   14  2  -0.35000     20.548730136500     11.574959173800    -16.067007467900
      43   15  1   0.70000     -8.429797629460     18.916368803500     19.967059175400
      44   15  2  -0.35000     -7.674530082490     19.707860675400     19.581427810900
      45   15  2  -0.35000     -9.185065176420     18.124876931600     20.352690539800
      46   16  1   0.70000      0.891777525916     14.780915385300     15.929898620700
      47   16  2  -0.35000      0.559184550351     14.903740240900     17.034387628100
      48   16  2  -0.35000      1.224370501480     14.658090529800     14.825409613300
      49   17  1   0.70000     -1.084758580620     21.229489147500    -14.446326079900
      50   17  2  -0.35000     -1.046404934200     21.945998390600    -13.534874763400
      51   17  2  -0.35000     -1.123112227030     20.512979904500    -15.357777396500
      52   18  1   0.70000     19.525332669000      5.200912538420     21.579901718600
      53   18  2  -0.35000     19.673902099600      4.625243987760     22.575960373500
      54   18  2  -0.35000     19.376763238500      5.776581089090     20.583843063600
      55   19  1   0.70000    -10.268861471500     22.358776538000      6.514029690680
      56   19  2  -0.35000     -9.743472958760     21.657565006200      7.274206839990
      57   19  2  -0.35000    -10.794249984200     23.059988069800      5.753852541370
      58   20  1   0.70000     -5.986715145630    -18.768495068700    -22.278223434900
      59   20  2  -0.35000     -6.183901687660    -19.128954464800    -21.193425531400
      60   20  2  -0.35000     -5.789528603600    -18.408035672500    -23.363021338308
      61   21  1   0.70000      0.958680174164      4.852636608420     17.528983348800
      62   21  2  -0.35000      0.274411306323      4.934756651360     18.462060202600
      63   21  2  -0.35000      1.642949042010      4.770516565490     16.595906495000
      64   22  1   0.70000     -1.631429674190     -2.470406655910     -5.081083311790
      65   22  2  -0.35000     -2.640093999070     -2.718207530870     -4.564565155190
      66   22  2  -0.35000     -0.622765349320     -2.222605780960     -5.597601468400
      67   23  1   0.70000      6.111293949870     17.166361661400      5.247708768000
      68   23  2  -0.35000      6.807621443710     17.894894306200      5.822137359530
      69   23  2  -0.35000      5.414966456020     16.437829016600      4.673280176470
      70   24  1   0.70000     -8.768633564030      6.485358812380    -19.613938248700
      71   24  2  -0.35000     -9.903691804050      6.282291734000    -19.740455257200
      72   24  2  -0.35000     -7.633575324000      6.688425890750    -19.487421240200
      73   25  1   0.70000    -23.083847502500    -19.962319419400     18.607795011100
      74   25  2  -0.35000    -22.206249085200    -20.682186610700     18.846985823700
      75   25  2  -0.35000    -23.961445919708    -19.242452228000     18.368604198400
      76   26  1   0.70000     13.624029365800    -11.926981918700     -0.053475117450
      77   26  2  -0.35000     14.686484520400    -11.711119869000      0.359068965061
      78   26  2  -0.35000     12.561574211300    -12.142843968400     -0.466019199960
      79   27  1   0.70000    -21.456923802300     16.266775070600     22.162581671900
      80   27  2  -0.35000    -22.156646436600     16.965084391300     21.555661308500
      81   27  2  -0.35000    -20.757201167900     15.568465749900     22.769502035300
      82   28  1   0.70000     -4.255293201560    -10.183285846900    -21.486621917200
      83   28  2  -0.35000     -3.624675219270    -10.821302783600    -20.751193233400
      84   28  2  -0.35000     -4.885911183850     -9.545268910200    -22.222050600900
      85   29  1   0.70000      2.652994690070    -13.835266713900    -19.690771204800
      86   29  2  -0.35000      2.651019193820    -12.882091367200    -19.029671472600
      87   29  2  -0.35000      2.654970186330    -14.788442060500    -20.351870937000
      88   30  1   0.70000    -23.026140789000     -8.091227087490    -14.816228447800
      89   30  2  -0.35000    -23.331451519608     -9.199499017850    -14.660926528500
      90   30  2  -0.35000    -22.720830058400     -6.982955157130    -14.971530367200
      91   31  1   0.70000     18.543231036800    -13.564316881600      0.314241123769
      92   31  2  -0.35000     17.792418523200    -14.316701522400      0.778781672872
      93   31  2  -0.35000     19.294043550400    -12.811932240900     -0.150299425333
      94   32  1   0.70000      4.480954818010    -22.883991522800    -15.177418317200
      95   32  2  -0.35000      5.351397862890    -23.618843794108    -14.958509557700
      96   32  2  -0.35000      3.610511773120    -22.149139251500    -15.396327076600
      97   33  1   0.70000      7.256920900450     11.872899857600     -8.842894252350
      98   33  2  -0.35000      7.957796821210     12.241495475000     -7.995244434030
      99   33  2  -0.35000      6.556044979700     11.504304240200     -9.690544070680
     100   34  1   0.70000     17.617136189300    -20.531864763300     11.630326824300
     101   34  2  -0.35000     17.144282744800    -21.583641348000     11.504725726900
     102   34  2  -0.35000     18.089989633900    -19.480088178500     11.755927921600
     103   35  1   0.70000     -1.410955626050    -20.421151764400     12.844405985500
     104   35  2  -0.35000     -2.433037875540    -20.578025309700     12.318726838100
     105   35  2  -0.35000     -0.388873376552    -20.264278219100     13.370085133000
     106   36  1   0.70000     12.631944079400     -5.183846904030    -20.827143415400
     107   36  2  -0.35000     13.679142957500     -4.751497122860    -21.076238129400
     108   36  2  -0.35000     11.584745201400     -5.616196685210    -20.578048701300
     109   37  1   0.70000     -4.317525357840    -16.920892882500     -3.671852451620
     110   37  2  -0.35000     -5.042926439390    -16.938947893300     -2.766829088670
     111   37  2  -0.35000     -3.592124276300    -16.902837871600     -4.576875814560
     112   38  1   0.70000     14.003573426000    -20.279952846600      8.145564690730
     113   38  2  -0.35000     14.769871735300    -20.943788168200      7.581907377440
     114   38  2  -0.35000     13.237275116600    -19.616117525000      8.709222004020
     115   39  1   0.70000     13.619992739600     19.713725451600     -5.120013696070
     116   39  2  -0.35000     13.836354772200     20.846284035900     -4.993133737190
     117   39  2  -0.35000     13.403630707100     18.581166867300     -5.246893654950
     118   40  1   0.70000    -17.687947728000    -11.015750933600    -13.649534405200
     119   40  2  -0.35000    -17.395621363700     -9.952199705870    -13.290363021700
     120   40  2  -0.35000    -17.980274092200    -12.079302161400    -14.008705788800
     121   41  1   0.70000    -12.690287878000    -21.391858295400      5.789106541590
     122   41  2  -0.35000    -11.867100181600    -20.607486047000      5.559493405340
     123   41  2  -0.35000    -13.513475574500    -22.176230543900      6.018719677850
     124   42  1   0.70000     13.814208141000    -11.895493774200    -11.151814207900
     125   42  2  -0.35000     14.911047140300    -11.972089420000    -11.521513162200
     126   42  2  -0.35000     12.717369141800    -11.818898128400    -10.782115253700
     127   43  1   0.70000     18.731007494000      5.761948655570    -10.036359469800
     128   43  2  -0.35000     17.951534262700      5.036724697770    -10.496871893900
     129   43  2  -0.35000     19.510480725300      6.487172613360     -9.575847045720
     130   44  1   0.70000     -4.098670865280     -0.962950009340     -2.129876864420
     131   44  2  -0.35000     -3.431732968190     -0.257098451587     -2.764358873500
     132   44  2  -0.35000     -4.765608762360     -1.668801567090     -1.495394855330
     133   45  1   0.70000     12.664396900100     -4.581642991170      8.367710768960
     134   45  2  -0.35000     11.689201988100     -4.726095641050      7.756377541050
     135   45  2  -0.35000     13.639591812100     -4.437190341290      8.979043996860
     136   46  1   0.70000     19.045192658500     10.758941088200    -20.747373024300
     137   46  2  -0.35000     18.183408542200     11.253378541700    -21.346088099800
     138   46  2  -0.35000     19.906976774700     10.264503634700    -20.148657948900
     139   47  1   0.70000      5.424856615180    -19.199281019000     20.280335158000
     140   47  2  -0.35000      5.809894270720    -18.780048071500     21.291072383800
     141   47  2  -0.35000      5.039818959640    -19.618513966500     19.269597932300
     142   48  1   0.70000      2.395769069460      4.827386533270    -21.566709509000
     143   48  2  -0.35000      1.666927578780      5.561229877290    -21.041481912700
     144   48  2  -0.35000      3.124610560130      4.093543189260    -22.091937105300
     145   49  1   0.70000    -18.898235511600     10.611791085500     14.111925186300
     146   49  2  -0.35000    -18.629735132800     11.580070811700     13.532320218700
     147   49  2  -0.35000    -19.166735890500      9.643511359360     14.691530153900
     148   50  1   0.70000     -0.700417375891     18.081082436200    -12.142826082000
     149   50  2  -0.35000     -0.594600352254     16.998943500500    -11.738625536000
     150   50  2  -0.35000     -0.806234399529     19.163221371900    -12.547026628100
     151   51  1   0.70000    -22.584068385300      3.618787851210     -5.518491719840
     152   51  2  -0.35000    -23.598952132108      3.282044107870     -5.068808907380
     153   51  2  -0.35000    -21.569184638500      3.955531594550     -5.968174532290
     154   52  1   0.70000    -17.011351845800     22.103359065800     -1.609700651280
     155   52  2  -0.35000    -16.943088707600     23.159711956800     -1.135297116700
     156   52  2  -0.35000    -17.079614984100     21.047006174800     -2.084104185850
     157   53  1   0.70000      3.873069901380    -22.953392285000     23.064451098400
     158   53  2  -0.35000      3.932764127430    -24.056564306308     23.418072493108
     159   53  2  -0.35000      3.813375675330    -21.850220263700     22.710829703600
     160   54  1   0.70000     17.399592313300     -5.487968268910      8.619616657380
     161   54  2  -0.35000     16.562871263600     -5.625969138060      7.828128410400
     162   54  2  -0.35000     18.236313363000     -5.349967399760      9.411104904360
     163   55  1   0.70000     18.947908222300      6.948007696670    -15.761281117200
     164   55  2  -0.35000     18.438200003600      5.919626064180    -15.593266981700
     165   55  2  -0.35000     19.457616441000      7.976389329170    -15.929295252700
     166   56  1   0.70000     -8.425019929780     13.107348680900    -17.689096913800
     167   56  2  -0.35000     -9.534649112160     13.438418087400    -17.620422860000
     168   56  2  -0.35000     -7.315390747390     12.776279274400    -17.757770967600
     169   57  1   0.70000      5.994220984340    -12.342885947600      1.037805405810
     170   57  2  -0.35000      5.241520193600    -11.741911339600      1.684234860740
     171   57  2  -0.35000      6.746921775080    -12.943860555600      0.391375950879
     172   58  1   0.70000    -12.985666141800     10.651753331500     23.173335794000
     173   58  2  -0.35000    -12.512454199400      9.862341566510     22.467290807500
     174   58  2  -0.35000    -13.458878084100     11.441165096500     23.879380780508
     175   59  1   0.70000    -15.517499283900      0.714536894661    -12.841851952700
     176   59  2  -0.35000    -14.646749989600      0.027688466552    -13.181903277000
     177   59  2  -0.35000    -16.388248578300      1.401385322770    -12.501800628400
     178   60  1   0.70000     -7.105035102740      5.357230400360     21.720940190200
     179   60  2  -0.35000     -6.556897869080      4.629543267180     21.002875423400
     180   60  2  -0.35000     -7.653172336390      6.084917533550     22.439004957000
     181   61  1   0.70000    -20.559240284100    -20.884595465900    -17.156068675900
     182   61  2  -0.35000    -19.906809619200    -21.823518529300    -16.960217434900
     183   61  2  -0.35000    -21.211670948900    -19.945672402500    -17.351919916900
     184   62  1   0.70000    -16.675346327300     15.382800349300     -0.659420454658
     185   62  2  -0.35000    -16.621916486900     16.492288173000     -0.325082270894
     186   62  2  -0.35000    -16.728776167700     14.273312525500     -0.993758638421
     187   63  1   0.70000      3.249065684380     -4.854406536700    -18.689389088400
     188   63  2  -0.35000      2.323308365130     -4.155527351330    -18.677503378200
     189   63  2  -0.35000      4.174823003630     -5.553285722080    -18.701274798500
     190   64  1   0.70000     10.440210648100     12.207538288200    -13.230483288800
     191   64  2  -0.35000      9.956270508190     12.310817897300    -12.181323976200
     192   64  2  -0.35000     10.924150788000     12.104258679100    -14.279642601500
     193   65  1   0.70000    -19.116840722600     10.519438969300     -7.935554682820
     194   65  2  -0.35000    -18.865716134000     10.369024631800     -6.813096680020
     195   65  2  -0.35000    -19.367965311300     10.669853306800     -9.058012685620
     196   66  1   0.70000    -18.661020618800    -15.762184018900     -8.408830697540
     197   66  2  -0.35000    -19.112124623100    -14.802591443200     -8.879242502180
     198   66  2  -0.35000    -18.209916614400    -16.721776594600     -7.938418892890
     199   67  1   0.70000     -5.134299786160      9.714730576310      8.358071327010
     200   67  2  -0.35000     -4.689849172310     10.751132381700      8.629981145990
     201   67  2  -0.35000     -5.578750400020      8.678328770930      8.086161508040
     202   68  1   0.70000    -22.808209543500    -18.355823729700     22.655772410900
     203   68  2  -0.35000    -22.694921143400    -18.774397865600     23.731672699608
     204   68  2  -0.35000    -22.921497943600    -17.937249593800     21.579872122200
     205   69  1   0.70000      2.197052450350    -20.283001657800      1.932560361340
     206   69  2  -0.35000      2.431353382620    -19.750086959900      2.935907259410
     207   69  2  -0.35000      1.962751518090    -20.815916355700      0.929213463261
     208   70  1   0.70000    -12.246051502500     -8.062692072390      3.666941385460
     209   70  2  -0.35000    -11.642847175700     -8.394624423020      4.600518085410
     210   70  2  -0.35000    -12.849255829400     -7.730759721770      2.733364685510
     211   71  1   0.70000     -7.431996439180     -9.992092451370      5.246332565000
     212   71  2  -0.35000     -7.649196921510     -9.902972533520      6.382326222870
     213   71  2  -0.35000     -7.214795956840    -10.081212369200      4.110338907140
     214   72  1   0.70000    -14.728336817200     -5.803059540260     11.850272616900
     215   72  2  -0.35000    -14.836588794400     -6.955526442480     11.774764016600
     216   72  2  -0.35000    -14.620084840000     -4.650592638040     11.925781217100
     217   73  1   0.70000    -19.257743413700     -7.874777874770     -3.899727711890
     218   73  2  -0.35000    -20.123058768400     -8.644787366260     -3.837159988660
     219   73  2  -0.35000    -18.392428059100     -7.104768383280     -3.962295435120
     220   74  1   0.70000    -16.688002286300      4.806722657350     10.399381105700
     221   74  2  -0.35000    -16.512680293400      5.951550893160     10.334338740400
     222   74  2  -0.35000    -16.863324279200      3.661894421540     10.464423471000
     223   75  1   0.70000     -7.432664613680    -19.798321237400     12.847604237100
     224   75  2  -0.35000     -8.128958115090    -20.490461242000     12.229771271100
     225   75  2  -0.35000     -6.736371112270    -19.106181232700     13.465437203100
     226   76  1   0.70000     -6.749651254400    -16.627633616400      4.766840740810
     227   76  2  -0.35000     -7.297400280030    -17.646090020900      4.858041383130
     228   76  2  -0.35000     -6.201902228770    -15.609177212000      4.675640098490
     229   77  1   0.70000    -22.370538685800     -3.949707110430    -23.127198974100
     230   77  2  -0.35000    -21.341326761500     -4.164055849660    -23.617481987308
     231   77  2  -0.35000    -23.399750610008     -3.735358371210    -22.636915960900
     232   78  1   0.70000     22.163657039500      7.689852982250    -21.460549530700
     233   78  2  -0.35000     21.977225511000      8.707222060980    -21.985719448700
     234   78  2  -0.35000     22.350088568100      6.672483903510    -20.935379612600
     235   79  1   0.70000     10.339077749100    -14.881536919100      1.766770570150
     236   79  2  -0.35000     10.636501380900    -15.475059633400      2.718017105420
     237   79  2  -0.35000     10.041654117200    -14.288014204900      0.815524034867
     238   80  1   0.70000    -23.172295935300     15.772535472000      6.514193455100
     239   80  2  -0.35000    -22.840471883000     15.556644354800      5.423833962170
     240   80  2  -0.35000    -23.504119987608     15.988426589300      7.604552948030
     241   81  1   0.70000     14.959285091600     14.250844574900     15.744606286700
     242   81  2  -0.35000     14.427157193500     15.244270519600     16.019460415600
     243   81  2  -0.35000     15.491412989800     13.257418630100     15.469752157800
     244   82  1   0.70000    -15.970647719400     13.917120769100    -19.454801621600
     245   82  2  -0.35000    -16.216758321100     14.767711883300    -20.204150891500
     246   82  2  -0.35000    -15.724537117700     13.066529655000    -18.705452351700
     247   83  1   0.70000     -7.738096507280     -9.942264612800     -7.707508801280
     248   83  2  -0.35000     -8.421713422670     -9.648384164040     -6.817619934710
     249   83  2  -0.35000     -7.054479591900    -10.236145061600     -8.597397667840
     250   84  1   0.70000     19.622265956200     -8.495191881380     15.451794028400
     251   84  2  -0.35000     19.314260276200     -7.890984695190     16.392892417100
     252   84  2  -0.35000     19.930271636200     -9.099399067570     14.510695639600
     253   85  1   0.70000     21.199531657600    -16.067333503600     19.270636013800
     254   85  2  -0.35000     20.372185744100    -15.969572232800     20.077817203700
     255   85  2  -0.35000     22.026877571100    -16.165094774300     18.463454823900
     256   86  1   0.70000      7.412537312230      8.795001570310      8.417104804720
     257   86  2  -0.35000      7.244272783240      7.669087712020      8.639826676120
     258   86  2  -0.35000      7.580801841220      9.920915428600      8.194382933320
     259   87  1   0.70000     15.078651716600      4.712813690130     20.766192588300
     260   87  2  -0.35000     13.960497876400      4.692306816200     20.458115556000
     261   87  2  -0.35000     16.196805556700      4.733320564050     21.074269620700
     262   88  1   0.70000    -13.175047712600      5.908763466760      7.273773653150
     263   88  2  -0.35000    -13.348920065100      6.463840952520      8.277395788140
     264   88  2  -0.35000    -13.001175360100      5.353685981000      6.270151518170
     265   89  1   0.70000      9.296754965420      4.734459030550    -21.984941089300
     266   89  2  -0.35000      9.337224660200      5.651360297070    -22.694345255700
     267   89  2  -0.35000      9.256285270640      3.817557764030    -21.275536922900
     268   90  1   0.70000     10.587092894500     20.926330064700     13.250988109900
     269   90  2  -0.35000     10.127289296300     21.283835917100     14.254168161800
     270   90  2  -0.35000     11.046896492600     20.568824212300     12.247808058000
     271   91  1   0.70000     -7.139595346480     -2.807256336380     -3.962373122590
     272   91  2  -0.35000     -6.866327060150     -3.591313310860     -3.152324294150
     273   91  2  -0.35000     -7.412863632810     -2.023199361900     -4.772421951020
     274   92  1   0.70000    -13.822829145000      6.053193212030     -9.102622274570
     275   92  2  -0.35000    -13.275293176700      6.346647329770     -8.122985074320
     276   92  2  -0.35000    -14.370365113400      5.759739094290    -10.082259474800
     277   93  1   0.70000     -1.223136129110    -12.701506200900     21.910289785200
     278   93  2  -0.35000     -0.698254665161    -13.735180032000     21.950512413200
     279   93  2  -0.35000     -1.748017593070    -11.667832369900     21.870067157200
     280   94  1   0.70000    -10.302948987300    -16.565501174300     17.091685899000
     281   94  2  -0.35000    -11.086784530300    -17.320436867200     17.493275168200
     282   94  2  -0.35000     -9.519113444400    -15.810565481400     16.690096629700
     283   95  1   0.70000     20.079692724600     12.885090830900     -4.230304995040
     284   95  2  -0.35000     20.021669785600     11.886025381600     -4.816906705280
     285   95  2  -0.35000     20.137715663700     13.884156280300     -3.643703284810
     286   96  1   0.70000      6.978479785630    -21.662618260600    -11.477937536300
     287   96  2  -0.35000      6.694942133980    -21.398985309400    -10.384454995500
     288   96  2  -0.35000      7.262017437280    -21.926251211700    -12.571420077200
     289   97  1   0.70000     -1.810388028900      4.781163973900    -11.806690394000
     290   97  2  -0.35000     -2.693000783550      5.519252981050    -11.658976674800
     291   97  2  -0.35000     -0.927775274255      4.043074966750    -11.954404113300
     292   98  1   0.70000    -10.401843783700     13.457568344900     -4.984112077150
     293   98  2  -0.35000     -9.667230141680     12.562715770100     -5.056095868630
     294   98  2  -0.35000    -11.136457425700     14.352420919800     -4.912128285660
     295   99  1   0.70000    -12.740727469300      9.973596428760      9.475479846190
     296   99  2  -0.35000    -13.783970423400      9.769672787420      9.939871154410
     297   99  2  -0.35000    -11.697484515200     10.177520070100      9.011088537960
     298  100  1   0.70000     11.451206746400    -13.310058427300    -14.608360663200
     299  100  2  -0.35000     10.928054001800    -14.339159048000    -14.721776350900
     300  100  2  -0.35000     11.974359491100    -12.280957806600    -14.494944975600
     301  101  1   0.70000     -3.908067561480    -18.405205635900     18.156261296700
     302  101  2  -0.35000     -3.062329440170    -18.724626851200     18.883101800100
     303  101  2  -0.35000     -4.753805682790    -18.085784420600     17.429420793300
     304  102  1   0.70000    -11.144674366400     21.279113805900    -11.754709263400
     305  102  2  -0.35000    -11.046865707700     20.570867570900    -10.841242932900
     306  102  2  -0.35000    -11.242483025100     21.987360040800    -12.668175593900
     307  103  1   0.70000     -4.679402235250      0.267389175267    -11.190583258700
     308  103  2  -0.35000     -4.869446533170     -0.697104490664    -11.806403957600
     309  103  2  -0.35000     -4.489357937330      1.231882841200    -10.574762559700
     310  104  1   0.70000     -3.602552224940    -19.534089687200      2.949734201120
     311  104  2  -0.35000     -2.845387839240    -19.846642988900      2.128386207470
     312  104  2  -0.35000     -4.359716610630    -19.221536385600      3.771082194760
     313  105  1   0.70000      2.436111426000     21.002675802600      9.637244546050
     314  105  2  -0.35000      3.337358775030     20.863883337800     10.354245151100
     315  105  2  -0.35000      1.534864076970     21.141468267400      8.920243941040
     316  106  1   0.70000    -11.484881864700     18.409964483100     -1.426055873300
     317  106  2  -0.35000    -12.570024156000     18.000479850600     -1.406344374550
     318  106  2  -0.35000    -10.399739573300     18.819449115600     -1.445767372040
     319  107  1   0.70000      1.345280191670     14.347862668400     -2.771750869450
     320  107  2  -0.35000      0.500539040682     14.958960857200     -3.280250025340
     321  107  2  -0.35000      2.190021342650     13.736764479700     -2.263251713550
     322  108  1   0.70000     -9.688059332930     10.597165034200      0.323188467388
     323  108  2  -0.35000     -8.731999858770     11.132976678100     -0.056885425630
     324  108  2  -0.35000    -10.644118807100     10.061353390400      0.703262360407
     325  109  1   0.70000     -3.638236520020      3.518145072020     -0.701025007881
     326  109  2  -0.35000     -4.101585292590      2.528464476540     -0.311871781125
     327  109  2  -0.35000     -3.174887747450      4.507825667490     -1.090178234640
     328  110  1   0.70000     10.356222632700    -22.925452212300     10.165502301200
     329  110  2  -0.35000     11.050231564400    -21.997844939000     10.106372364200
     330  110  2  -0.35000      9.662213701050    -23.853059485508     10.224632238200
     331  111  1   0.70000    -11.511394816100     -2.664756506450     11.563119658100
     332  111  2  -0.35000    -12.124392463300     -3.245610448750     10.767857071100
     333  111  2  -0.35000    -10.898397168900     -2.083902564150     12.358382245100
     334  112  1   0.70000     11.959569559300    -12.121005464500    -22.577513788100
     335  112  2  -0.35000     12.808916829400    -12.383238982700    -23.322794135908
     336  112  2  -0.35000     11.110222289300    -11.858771946400    -21.832233440300
     337  113  1   0.70000    -18.701384775600    -15.215032765300     -4.769296410900
     338  113  2  -0.35000    -17.916773979000    -14.798740714700     -4.023181924780
     339  113  2  -0.35000    -19.485995572300    -15.631324815800     -5.515410897020
     340  114  1   0.70000     -0.110364970713    -10.997322669900    -19.680354286700