LAMMPS Atom File

         3000 atoms
         2000 bonds
         1000 angles
           0 dihedrals
           0 impropers

           2 atom types
           1 bond types
           1 angle types

         0.0  42.9216677299 xlo xhi
         0.0  42.9216677299 ylo yhi
         0.0  42.9216677299 zlo zhi

Masses

         1   12.01070
         2   15.99990

Atoms

       1    1  1   0.70000     21.196545232600      8.842745018850    -20.447147136200
       2    1  2  -0.35000     21.580216523992      8.590767359660    -19.381828592500
       3    1  2  -0.35000     20.812873941300      9.094722678040    -21.512465679792
       4    2  1   0.70000      6.566755420480     17.477976810200     -0.061007040490
       5    2  2  -0.35000      6.853565485890     16.743780861500     -0.912063028825
       6    2  2  -0.35000      6.279945355070     18.212172758900      0.790048947844
       7    3  1   0.70000      0.462449728105     11.168428281800    -19.072215462800
       8    3  2  -0.35000      0.789529453092     12.224110474100    -19.424570344200
       9    3  2  -0.35000      0.135370003118     10.112746089600    -18.719860581300
      10    4  1   0.70000    -21.323401991700     15.697902706000     -8.697027098280
      11    4  2  -0.35000    -20.255723411600     15.481075315300     -9.095333930200
      12    4  2  -0.35000    -22.391080571692     15.914730096800     -8.298720266360
      13    5  1   0.70000     10.327168215600     -2.087053417870     -4.224623582400
      14    5  2  -0.35000      9.636248304600     -1.226647252260     -3.866949279830
      15    5  2  -0.35000     11.018088126700     -2.947459583480     -4.582297884960
      16    6  1   0.70000      4.487103155680    -16.046638174100     16.942166062200
      17    6  2  -0.35000      3.657573407020    -15.235942473500     16.958068171600
      18    6  2  -0.35000      5.316632904350    -16.857333874700     16.926263952800
      19    7  1   0.70000     -5.014777528990    -18.989315734300     -9.295450189090
      20    7  2  -0.35000     -4.030163195250    -19.560292627200     -9.519325157680
      21    7  2  -0.35000     -5.999391862730    -18.418338841400     -9.071575220490
      22    8  1   0.70000     -1.135322326660      1.927785240270      8.799378209360
      23    8  2  -0.35000     -2.089283322510      1.330160776240      8.519372105160
      24    8  2  -0.35000     -0.181361330800      2.525409704290      9.079384313550
      25    9  1   0.70000      9.504001877340    -11.814388917300     17.529511747800
      26    9  2  -0.35000     10.436196859100    -12.484652845400     17.364106842600
      27    9  2  -0.35000      8.571806895570    -11.144124989200     17.694916653000
      28   10  1   0.70000     -8.992231728590     20.057264189200     -2.580865094910
      29   10  2  -0.35000     -9.170886012420     20.288493995900     -1.458271925770
      30   10  2  -0.35000     -8.813577444750     19.826034382600     -3.703458264040
      31   11  1   0.70000     -9.600847051400     13.724200673600      4.260074604360
      32   11  2  -0.35000     -9.950362579800     14.386508897000      5.145956488460
      33   11  2  -0.35000     -9.251331523000     13.061892450100      3.374192720250
      34   12  1   0.70000     11.910697726600      1.573314935180      2.189605207960
      35   12  2  -0.35000     11.085207802500      1.850769712960      2.955885333960
      36   12  2  -0.35000     12.736187650700      1.295860157390      1.423325081960
      37   13  1   0.70000    -17.621587152400     -8.543248659560     16.105379415500
      38   13  2  -0.35000    -18.351172406400     -8.465632668880     15.206891176700
      39   13  2  -0.35000    -16.892001898400     -8.620864650240     17.003867654200
      40   14  1   0.70000     18.411795219500     13.898534782600    -12.351869592500
      41   14  2  -0.35000     18.638729477700     12.782661162100    -12.573063863200
      42   14  2  -0.35000     18.184860961300     15.014408403200    -12.130675321900
      43   15  1   0.70000     -7.770197796000     16.035020072900     17.735880292100
      44   15  2  -0.35000     -7.913944314470     14.921224359200     17.445370315300
      45   15  2  -0.35000     -7.626451277520     17.148815786500     18.026390268900
      46   16  1   0.70000     -2.040638370050     19.442182569500     13.019698660500
      47   16  2  -0.35000     -1.179829106890     18.757630052500     12.650923303500
      48   16  2  -0.35000     -2.901447633200     20.126735086500     13.388474017500
      49   17  1   0.70000     -0.108744206839     16.348022679900    -15.316946931300
      50   17  2  -0.35000     -0.719012560842     15.431342544400    -15.681460395300
      51   17  2  -0.35000      0.501524147164     17.264702815300    -14.952433467300
      52   18  1   0.70000     16.077162504700      6.904217482040     20.457044734900
      53   18  2  -0.35000     16.718281801100      6.331556326070     21.235906242700
      54   18  2  -0.35000     15.436043208400      7.476878638010     19.678183227100
      55   19  1   0.70000     -9.979129752330    -19.183416728000      4.641154225910
      56   19  2  -0.35000    -10.524441589200    -18.540909312100      3.844022354050
      57   19  2  -0.35000     -9.433817915460    -19.825924143800      5.438286097780
      58   20  1   0.70000     -2.172368606970    -18.164990936100    -19.320617600700
      59   20  2  -0.35000     -3.187843823350    -18.592559215600    -19.683378474100
      60   20  2  -0.35000     -1.156893390600    -17.737422656600    -18.957856727300
      61   21  1   0.70000     -0.707714798766      3.609678050580     12.374034530300
      62   21  2  -0.35000     -1.310482780770      2.986153015240     11.603653267400
      63   21  2  -0.35000     -0.104946816767      4.233203085920     13.144415793100
      64   22  1   0.70000     -3.590475536650     -4.282137897560     -3.997766315770
      65   22  2  -0.35000     -4.306093530520     -5.142030357810     -3.691048458990
      66   22  2  -0.35000     -2.874857542790     -3.422245437310     -4.304484172540
      67   23  1   0.70000      2.154408355460     19.230985633700      0.792313346596
      68   23  2  -0.35000      2.357908746630     19.303699232000     -0.347379736396
      69   23  2  -0.35000      1.950907964300     19.158272035400      1.932006429590
      70   24  1   0.70000    -11.318930291700     12.118978309500    -16.621875122100
      71   24  2  -0.35000    -11.346223359200     12.459725628200    -15.513386803100
      72   24  2  -0.35000    -11.291637224300     11.778230990900    -17.730363441100
      73   25  1   0.70000    -18.385301587900    -16.905862258700     16.865563782400
      74   25  2  -0.35000    -18.992042038300    -17.012697600200     17.848443345600
      75   25  2  -0.35000    -17.778561137600    -16.799026917300     15.882684219200
      76   26  1   0.70000     15.147065758300     -9.182349103660     -1.918569644350
      77   26  2  -0.35000     15.630899569800     -9.955630979640     -2.635186685090
      78   26  2  -0.35000     14.663231946700     -8.409067227690     -1.201952603610
      79   27  1   0.70000     18.415931098500     17.371687404400    -20.100071828800
      80   27  2  -0.35000     17.783544381600     16.845874488100    -20.918123060200
      81   27  2  -0.35000     19.048317815400     17.897500320800    -19.282020597300
      82   28  1   0.70000     -4.015550171860     -9.515960171150    -15.212288650300
      83   28  2  -0.35000     -4.676244559640    -10.241621668300    -14.593824166700
      84   28  2  -0.35000     -3.354855784080     -8.790298673980    -15.830753133900
      85   29  1   0.70000      8.068759346390    -17.038228682700    -19.667230029600
      86   29  2  -0.35000      8.734113373070    -17.252688110300    -18.741535062000
      87   29  2  -0.35000      7.403405319720    -16.823769255100    -20.592924997300
      88   30  1   0.70000    -19.852719377000     -6.219367038380    -13.075125303500
      89   30  2  -0.35000    -18.738046217800     -6.427214472600    -12.830374016900
      90   30  2  -0.35000    -20.967392536100     -6.011519604150    -13.319876590100
      91   31  1   0.70000     12.836114945100    -16.216902436100      3.262591334870
      92   31  2  -0.35000     12.770658193300    -15.075035080400      3.069060056620
      93   31  2  -0.35000     12.901571696900    -17.358769791800      3.456122613130
      94   32  1   0.70000      8.388476542780     18.318983692000     -9.103961964680
      95   32  2  -0.35000      9.181906775740     17.610429758900     -9.566584693600
      96   32  2  -0.35000      7.595046309810     19.027537625100     -8.641339235750
      97   33  1   0.70000      5.203160895530      5.081425250640    -15.791594370400
      98   33  2  -0.35000      4.828117519060      4.319357646670    -16.581654768500
      99   33  2  -0.35000      5.578204272000      5.843492854620    -15.001533972200
     100   34  1   0.70000     13.365562252900     20.383251099800     13.029149007900
     101   34  2  -0.35000     12.525933502100     21.170829123500     13.171782865700
     102   34  2  -0.35000     14.205191003700     19.595673076100     12.886515150100
     103   35  1   0.70000     -6.642974434180    -18.318314165800     10.519028120700
     104   35  2  -0.35000     -6.259625113590    -17.506874925500      9.784038557710
     105   35  2  -0.35000     -7.026323754770    -19.129753406200     11.254017683600
     106   36  1   0.70000     15.200511494800     -5.588810293070    -19.709416462000
     107   36  2  -0.35000     15.675386906200     -5.030668585760    -18.810210602200
     108   36  2  -0.35000     14.725636083400     -6.146952000390    -20.608622321700
     109   37  1   0.70000    -10.558471861500    -12.194621482200     -1.809813366870
     110   37  2  -0.35000    -10.843609670600    -11.984571259800     -0.705197898061
     111   37  2  -0.35000    -10.273334052400    -12.404671704500     -2.914428835670
     112   38  1   0.70000     16.185151836200    -19.567549167100      6.291790115910
     113   38  2  -0.35000     17.068044437700    -19.404685573700      5.557231674340
     114   38  2  -0.35000     15.302259234600    -19.730412760600      7.026348557480
     115   39  1   0.70000     12.567591762600     15.943044906700     -6.748724889480
     116   39  2  -0.35000     11.966370675000     15.002670861500     -6.432766254630
     117   39  2  -0.35000     13.168812850200     16.883418951900     -7.064683524320
     118   40  1   0.70000    -14.448689051400     -9.865940958650    -15.354561969300
     119   40  2  -0.35000    -14.032545411800    -10.926408928700    -15.573267606300
     120   40  2  -0.35000    -14.864832691100     -8.805472988570    -15.135856332400
     121   41  1   0.70000    -15.312187720400    -19.049416679000      4.212915721990
     122   41  2  -0.35000    -14.880843998500    -18.064067134800      4.647229973700
     123   41  2  -0.35000    -15.743531442400    -20.034766223200      3.778601470270
     124   42  1   0.70000     12.382572573900    -11.343977800800    -14.169488719500
     125   42  2  -0.35000     13.300222432400    -10.779355820700    -14.599280246600
     126   42  2  -0.35000     11.464922715400    -11.908599780900    -13.739697192500
     127   43  1   0.70000     20.410986932300      6.633553752250     -7.151284305940
     128   43  2  -0.35000     19.660211008000      6.051738696830     -7.817187266400
     129   43  2  -0.35000     21.161762856700      7.215368807670     -6.485381345480
     130   44  1   0.70000      9.959882917680     -6.467124699770      6.655481177410
     131   44  2  -0.35000     10.645872173600     -5.791024764510      7.301938924110
     132   44  2  -0.35000      9.273893661720     -7.143224635020      6.009023430710
     133   45  1   0.70000      8.026733338900    -18.127348372300     18.411686456900
     134   45  2  -0.35000      8.143474652610    -19.273317454400     18.274842281000
     135   45  2  -0.35000      7.909992025200    -16.981379290100     18.548530632800
     136   46  1   0.70000      1.784355756710      3.519687101290     20.675704178500
     137   46  2  -0.35000      0.987066050240      2.857762835600     20.154373774200
     138   46  2  -0.35000      2.581645463180      4.181611366980     21.197034582800
     139   47  1   0.70000    -16.707620462400      7.120739069110     12.726105187000
     140   47  2  -0.35000    -17.436461953100      7.854582413130     13.251332783300
     141   47  2  -0.35000    -15.978778971700      6.386895725090     12.200877590700
     142   48  1   0.70000     -2.464821249700    -19.574021291300     -6.383045277380
     143   48  2  -0.35000     -3.603865896990    -19.388864997100     -6.265170605880
     144   48  2  -0.35000     -1.325776602400    -19.759177585500     -6.500919948880
     145   49  1   0.70000    -16.436722862100      9.600686180390     -4.879183174480
     146   49  2  -0.35000    -17.531186457600      9.519453864100     -4.503482829900
     147   49  2  -0.35000    -15.342259266600      9.681918496690     -5.254883519050
     148   50  1   0.70000    -20.342082044100     19.793397812900     -5.850034528740
     149   50  2  -0.35000    -20.738600964600     20.696220955700     -5.239065529100
     150   50  2  -0.35000    -19.945563123600     18.890574670100     -6.461003528390
     151   51  1   0.70000      2.998641956640    -18.677220488600    -19.241529591100
     152   51  2  -0.35000      3.357375464580    -19.529503811300    -18.541155827900
     153   51  2  -0.35000      2.639908448690    -17.824937165900    -19.941903354300
     154   52  1   0.70000     13.838183480100     -9.930095557630      7.925483200640
     155   52  2  -0.35000     12.687259907400     -9.827281906510      7.823481813500
     156   52  2  -0.35000     14.989107052700    -10.032909208800      8.027484587770
     157   53  1   0.70000     -5.015604848660      9.852434224270    -19.069175386500
     158   53  2  -0.35000     -5.226366881250      9.892316173280    -17.929180300700
     159   53  2  -0.35000     -4.804842816060      9.812552275260    -20.209170472400
     160   54  1   0.70000      1.027668022530    -12.622453441000     -1.976053848850
     161   54  2  -0.35000      1.951285365050    -11.924686037800     -2.051231343180
     162   54  2  -0.35000      0.104050680008    -13.320220844200     -1.900876354520
     163   55  1   0.70000     -5.313008825510     11.916018331600     19.267424219400
     164   55  2  -0.35000     -6.096461585580     11.873951070300     18.413005049200
     165   55  2  -0.35000     -4.529556065440     11.958085592900     20.121843389500
     166   56  1   0.70000    -13.360005732100     -0.341252938453    -10.753413831900
     167   56  2  -0.35000    -14.424351142200     -0.041510396519    -10.402809701200
     168   56  2  -0.35000    -12.295660321900     -0.640995480386    -11.104017962500
     169   57  1   0.70000     -5.656582120490      6.067985782360    -19.769593052900
     170   57  2  -0.35000     -6.413971768460      5.892234434130    -20.630448664900
     171   57  2  -0.35000     -4.899192472530      6.243737130580    -18.908737440900
     172   58  1   0.70000     20.883867314100    -21.083217743500    -15.797530905700
     173   58  2  -0.35000     21.416099047900    -20.053925957300    -15.743792647800
     174   58  2  -0.35000     20.351635580400    -22.112509529792    -15.851269163700
     175   59  1   0.70000    -15.590360732700     14.481691403000      1.257254251400
     176   59  2  -0.35000    -15.629414621900     14.776029524800      2.378610512270
     177   59  2  -0.35000    -15.551306843600     14.187353281200      0.135897990537
     178   60  1   0.70000      2.694558197860     -5.555172498020    -19.097084935500
     179   60  2  -0.35000      2.665502040640     -5.082263687170    -18.038258700300
     180   60  2  -0.35000      2.723614355090     -6.028081308860    -20.155911170700
     181   61  1   0.70000     13.307265836200     16.634234607100    -15.024845962900
     182   61  2  -0.35000     12.625642568900     17.043320893500    -14.180074910000
     183   61  2  -0.35000     13.988889103500     16.225148320700    -15.869617015700
     184   62  1   0.70000    -16.998362298200     14.711987985800     -7.209404811660
     185   62  2  -0.35000    -16.545055126500     13.805391230700     -6.645317113070
     186   62  2  -0.35000    -17.451669469900     15.618584740900     -7.773492510240
     187   63  1   0.70000    -20.177106213400    -14.840932377700     -9.067136934320
     188   63  2  -0.35000    -20.187154717400    -13.831718856800     -9.638964790220
     189   63  2  -0.35000    -20.167057709400    -15.850145898700     -8.495309078420
     190   64  1   0.70000     -3.460034236870     13.053734572400      9.092410892970
     191   64  2  -0.35000     -4.124643299960     13.217383558400      8.155867352800
     192   64  2  -0.35000     -2.795425173780     12.890085586400     10.028954433200
     193   65  1   0.70000    -20.830636316100    -20.237755633000     18.701600175300
     194   65  2  -0.35000    -20.794770553300    -21.349516604900     18.372508716300
     195   65  2  -0.35000    -20.866502078800    -19.125994661100     19.030691634300
     196   66  1   0.70000      3.431057480920    -17.836817345500      3.227594190420
     197   66  2  -0.35000      4.453545386810    -17.719252128200      2.692526996490
     198   66  2  -0.35000      2.408569575040    -17.954382562700      3.762661384340
     199   67  1   0.70000    -15.769668824300     -7.163784195740     -3.384616897730
     200   67  2  -0.35000    -15.321088410600     -6.482894824650     -4.209701909570
     201   67  2  -0.35000    -16.218249238000     -7.844673566840     -2.559531885900
     202   68  1   0.70000     -7.406963533380    -10.119090267000      5.143365155130
     203   68  2  -0.35000     -8.074434261540    -10.210135659000      4.199016933530
     204   68  2  -0.35000     -6.739492805230    -10.028044875000      6.087713376740
     205   69  1   0.70000    -10.590625932200     -5.039350656340      8.544468487210
     206   69  2  -0.35000    -11.243731928800     -5.733567758120      7.883321625400
     207   69  2  -0.35000     -9.937519935670     -4.345133554570      9.205615349020
     208   70  1   0.70000    -19.625842608900     -8.322415559650     -5.158493741470
     209   70  2  -0.35000    -18.689293021600     -8.983342709360     -5.336398697530
     210   70  2  -0.35000    -20.562392196100     -7.661488409950     -4.980588785410
     211   71  1   0.70000    -16.851968831800      5.429281156150     18.554125916900
     212   71  2  -0.35000    -16.960220809000      4.276814253930     18.478617316700
     213   71  2  -0.35000    -16.743716854500      6.581748058370     18.629634517200
     214   72  1   0.70000     -4.568371628580    -16.993799486700     13.848923360900
     215   72  2  -0.35000     -4.399800236850    -16.511336601400     12.807571715100
     216   72  2  -0.35000     -4.736943020310    -17.476262372000     14.890275006700
     217   73  1   0.70000     -4.741941092320      7.415272748260     -2.795050800480
     218   73  2  -0.35000     -4.565735399000      8.160472318850     -3.666388366310
     219   73  2  -0.35000     -4.918146785650      6.670073177670     -1.923713234650
     220   74  1   0.70000     -4.210996303970    -13.591645516300      6.841264300190
     221   74  2  -0.35000     -3.807349063510    -14.127938419800      5.895188813290
     222   74  2  -0.35000     -4.614643544440    -13.055352612800      7.787339787100
     223   75  1   0.70000     20.924862478600     -5.238464889130    -21.110189697900
     224   75  2  -0.35000     22.004105049092     -5.112067839840    -21.516218342292
     225   75  2  -0.35000     19.845619908200     -5.364861938430    -20.704161053500
     226   76  1   0.70000     16.903905929700      4.456140585380    -14.291993803600
     227   76  2  -0.35000     17.206416614100      4.177177744010    -15.376552247800
     228   76  2  -0.35000     16.601395245300      4.735103426750    -13.207435359300
     229   77  1   0.70000     10.223397990800    -14.677572301800     -1.347648992060
     230   77  2  -0.35000      9.311132488030    -15.387890490000     -1.441562377910
     231   77  2  -0.35000     11.135663493500    -13.967254113600     -1.253735606210
     232   78  1   0.70000     16.405773830800     14.932706368000      7.162146777460
     233   78  2  -0.35000     16.923113391800     13.900464119800      7.273662335430
     234   78  2  -0.35000     15.888434269900     15.964948616200      7.050631219480
     235   79  1   0.70000     12.845273529500     14.568165806100     13.670465272400
     236   79  2  -0.35000     12.837672231000     14.560842502900     14.830417249600
     237   79  2  -0.35000     12.852874828100     14.575489109200     12.510513295200
     238   80  1   0.70000    -15.886467273400     10.675020172200    -15.622603063100
     239   80  2  -0.35000    -16.570084188800     10.968900620900    -14.732714196500
     240   80  2  -0.35000    -15.202850358000     10.381139723400    -16.512491929600
     241   81  1   0.70000    -19.164159596500     -7.914369354730     12.517405090000
     242   81  2  -0.35000    -18.305845146700     -8.655299266630     12.272621162800
     243   81  2  -0.35000    -20.022474046200     -7.173439442830     12.762189017100
     244   82  1   0.70000    -19.814010794400    -14.162979034800     19.056983039400
     245   82  2  -0.35000    -18.685569792600    -13.923049888600     18.935925571800
     246   82  2  -0.35000    -20.942451796100    -14.402908181000     19.178040507000
     247   83  1   0.70000      4.622455569240     10.766861308800      6.900592463380
     248   83  2  -0.35000      4.295126689600      9.737464858480      6.477746448220
     249   83  2  -0.35000      4.949784448890     11.796257759200      7.323438478550
     250   84  1   0.70000     15.133754443600      3.484318829720    -21.124403917900
     251   84  2  -0.35000     15.166629223200      3.176243694380    -22.242263014492
     252   84  2  -0.35000     15.100879664000      3.792393965060    -20.006544821300
     253   85  1   0.70000    -13.403908505900     10.031951032500      8.904917145430
     254   85  2  -0.35000    -12.670142729100      9.625400012750      8.103727995940
     255   85  2  -0.35000    -14.137674282600     10.438502052300      9.706106294910
     256   86  1   0.70000      6.754876249260      8.331449752500     15.535836990600
     257   86  2  -0.35000      5.731778014660      8.537914680390     16.042040740000
     258   86  2  -0.35000      7.777974483860      8.124984824610     15.029633241200
     259   87  1   0.70000      6.746541675370     18.436223571200     10.944065927700
     260   87  2  -0.35000      7.651774667450     18.835715473600     11.549507460700
     261   87  2  -0.35000      5.841308683290     18.036731668800     10.338624394600
     262   88  1   0.70000     -6.119614026090     -3.366494878030     -1.530863452720
     263   88  2  -0.35000     -6.951200126550     -3.922076003780     -2.118565903140
     264   88  2  -0.35000     -5.288027925620     -2.810913752280     -0.943161002309
     265   89  1   0.70000    -14.510836704200      2.206117819990     -8.092661311620
     266   89  2  -0.35000    -13.815196994000      3.122426366600     -8.241201007030
     267   89  2  -0.35000    -15.206476414300      1.289809273390     -7.944121616210
     268   90  1   0.70000     -1.500858272450    -12.831487078600     18.659349842200
     269   90  2  -0.35000     -2.046532895140    -11.808436537600     18.624610862000
     270   90  2  -0.35000     -0.955183649761    -13.854537619600     18.694088822300
     271   91  1   0.70000    -10.148391968200    -16.568913133700     20.361140579200
     272   91  2  -0.35000     -9.933492731670    -17.185823859000     21.319701727500
     273   91  2  -0.35000    -10.363291204800    -15.952002408300     19.402579430800
     274   92  1   0.70000    -19.647026303600     10.519047741200     -2.482374344580
     275   92  2  -0.35000    -19.772019134100     11.645414475100     -2.729911762120
     276   92  2  -0.35000    -19.522033473100      9.392681007330     -2.234836927030
     277   93  1   0.70000      8.539087504010    -18.346588962400    -12.819232794200
     278   93  2  -0.35000      9.670614275270    -18.599811360900    -12.785683088200
     279   93  2  -0.35000      7.407560732740    -18.093366563800    -12.852782500200
     280   94  1   0.70000     -3.763102563080      4.664653861810    -15.119532383600
     281   94  2  -0.35000     -4.909700260230      4.491508218980    -15.088965943800
     282   94  2  -0.35000     -2.616504865920      4.837799504650    -15.150098823400
     283   95  1   0.70000    -12.118425133900     10.034315272700    -20.976698860300
     284   95  2  -0.35000    -11.595504682300      9.313975006970    -21.720516111292
     285   95  2  -0.35000    -12.641345585400     10.754655538500    -20.232881609300
     286   96  1   0.70000      1.906936873360     -7.665849022820     -7.744993758330
     287   96  2  -0.35000      1.688072266760     -6.527895104520     -7.797521501440
     288   96  2  -0.35000      2.125801479970     -8.803802941120     -7.692466015230
     289   97  1   0.70000     10.007639448700     -1.115621546170      3.534002962970
     290   97  2  -0.35000      9.635524358800     -0.337230607838      4.309398286010
     291   97  2  -0.35000     10.379754538600     -1.894012484500      2.758607639930
     292   98  1   0.70000     18.453052973200     -6.728603898890     -2.933939703090
     293   98  2  -0.35000     17.522568924500     -7.155733611150     -2.388632776670
     294   98  2  -0.35000     19.383537021900     -6.301474186620     -3.479246629520
     295   99  1   0.70000     18.661887399300     10.211299235800      9.268056488960
     296   99  2  -0.35000     18.138734654600      9.182198615070      9.154640801270
     297   99  2  -0.35000     19.185040143900     11.240399856500      9.381472176640
     298  100  1   0.70000    -15.116104980000     21.416792929800     -1.089466968430
     299  100  2  -0.35000    -15.465902756800     20.341395028200     -1.347848215040
     300  100  2  -0.35000    -14.766307203200     22.492190831392     -0.831085721821
     301  101  1   0.70000      8.175124104440      0.513522347749      7.010751116780
     302  101  2  -0.35000      7.322396879580      1.041666719730      6.428067838900
     303  101  2  -0.35000      9.027851329300     -0.014622024235      7.593434394670
     304  102  1   0.70000     20.428639219600      2.224914066010     20.778202194600
     305  102  2  -0.35000     21.180656863500      3.004134087080     20.362407026200
     306  102  2  -0.35000     19.676621575700      1.445694044950     21.193997362900
     307  103  1   0.70000    -14.934429378700     -1.846513890110    -16.507170800500
     308  103  2  -0.35000    -14.393356598600     -1.619922394000    -17.507918791000
     309  103  2  -0.35000    -15.475502158800     -2.073105386210    -15.506422810000
     310  104  1   0.70000     -5.363292811520    -12.748143779200     18.771837388000
     311  104  2  -0.35000     -6.041917607880    -12.039516043900     18.153036031800
     312  104  2  -0.35000     -4.684668015160    -13.456771514600     19.390638744200
     313  105  1   0.70000     21.071790336600      0.115609217017     -5.361100050390
     314  105  2  -0.35000     21.010149596400      0.789697811490     -4.419078295900
     315  105  2  -0.35000     21.133431076800     -0.558479377456     -6.303121804890
     316  106  1   0.70000     18.746568600100    -17.271187392900     10.487417209100
     317  106  2  -0.35000     19.058134731900    -18.167443085600      9.820144941760
     318  106  2  -0.35000     18.435002468300    -16.374931700100     11.154689476500
     319  107  1   0.70000      0.654467414635    -18.127289334500    -14.141541010300
     320  107  2  -0.35000      1.269569063610    -18.895176370300    -13.527049788500
     321  107  2  -0.35000      0.039365765664    -17.359402298700    -14.756032232000
     322  108  1   0.70000    -14.023546075700    -11.037381076100     17.421965822600
     323  108  2  -0.35000    -14.035094527300    -11.955433184800     16.712989829300
     324  108  2  -0.35000    -14.011997624100    -10.119328967500     18.130941815900
     325  109  1   0.70000      3.732495992360     13.908484723600     -1.075344970470
     326  109  2  -0.35000      3.214051119060     12.874585608200     -1.164044082430
     327  109  2  -0.35000      4.250940865660     14.942383839100     -0.986645858520
     328  110  1   0.70000     10.919302756500    -12.725560899900      5.846427088960
     329  110  2  -0.35000     12.072698422300    -12.669770215500      5.956725945260
     330  110  2  -0.35000      9.765907090770    -12.781351584300      5.736128232660
     331  111  1   0.70000      3.777994544760     -4.765899388490     20.072024616900
     332  111  2  -0.35000      3.828918384440     -5.906000405420     20.279814014500
     333  111  2  -0.35000      3.727070705090     -3.625798371560     19.864235219300
     334  112  1   0.70000     19.319841940400      5.793730711000     12.138504111200
     335  112  2  -0.35000     19.839134680800      5.135790333830     12.940407789900
     336  112  2  -0.35000     18.800549200000      6.451671088170     11.336600432600
     337  113  1   0.70000     19.949869150500      2.114979468180      0.679157978183
     338  113  2  -0.35000     19.416067510300      3.133130837950      0.524162503714
     339  113  2  -0.35000     20.483670790800      1.096828098410      0.834153452652
     340  114  1   0.70000     -0.818253306144    -11.455547269200    -12.411023305900