LAMMPS Atom File

         3000 atoms
         2000 bonds
         1000 angles
           0 dihedrals
           0 impropers

           2 atom types
           1 bond types
           1 angle types

         0.0  549.645934214 xlo xhi
         0.0  549.645934214 ylo yhi
         0.0  549.645934214 zlo zhi

Masses

         1   12.01070
         2   15.99990

Atoms

       1    1  1   0.70000   -157.235013354000    216.607731515000   -218.206560271000
       2    1  2  -0.35000   -158.189362058000    216.421900133000   -218.839241273000
       3    1  2  -0.35000   -156.280664651000    216.793562896000   -217.573879270000
       4    2  1   0.70000    233.111471632000    120.605133355000   -228.359570680000
       5    2  2  -0.35000    233.325325008000    119.469426578000   -228.459754769000
       6    2  2  -0.35000    232.897618257000    121.740840131000   -228.259386591000
       7    3  1   0.70000     66.544954184500    205.747777210000      5.060142096460
       8    3  2  -0.35000     65.671995657300    205.071322066000      4.705245143400
       9    3  2  -0.35000     67.417912711800    206.424232355000      5.415039049520
      10    4  1   0.70000    -84.707615281600    111.378679979000   -272.669305613000
      11    4  2  -0.35000    -84.417963966600    112.003066739000   -273.603031102000
      12    4  2  -0.35000    -84.997266596600    110.754293220000   -271.735580123000
      13    5  1   0.70000   -241.443504079000    156.633505404000   -109.371595866000
      14    5  2  -0.35000   -241.675293169000    155.567048920000   -108.978474529000
      15    5  2  -0.35000   -241.211714989000    157.699961888000   -109.764717204000
      16    6  1   0.70000    161.246030576000     -9.792503342510    -78.109025010600
      17    6  2  -0.35000    161.960864494000    -10.512064584100    -78.671914065900
      18    6  2  -0.35000    160.531196657000     -9.072942100880    -77.546135955300
      19    7  1   0.70000     36.012547139400   -217.546065739000    248.223206736000
      20    7  2  -0.35000     36.016190327000   -218.353561625000    249.055995498000
      21    7  2  -0.35000     36.008903951800   -216.738569853000    247.390417975000
      22    8  1   0.70000    -93.693830257400   -269.983504137000   -117.004211323000
      23    8  2  -0.35000    -94.026358110400   -270.852780306000   -117.696587066000
      24    8  2  -0.35000    -93.361302404300   -269.114227969000   -116.311835579000
      25    9  1   0.70000    -64.147577477500     31.464608859400    148.419916531000
      26    9  2  -0.35000    -64.437686354100     30.945331972900    149.415802245000
      27    9  2  -0.35000    -63.857468601000     31.983885745900    147.424030817000
      28   10  1   0.70000    119.999423049000   -150.914672141000   -243.815323603000
      29   10  2  -0.35000    118.970318899000   -150.511665381000   -244.167644764000
      30   10  2  -0.35000    121.028527198000   -151.317678902000   -243.463002443000
      31   11  1   0.70000   -143.302040829000    268.406670455000     52.096455997700
      32   11  2  -0.35000   -143.052096786000    267.602509226000     51.298676145100
      33   11  2  -0.35000   -143.551984873000    269.210831684000     52.894235850300
      34   12  1   0.70000   -118.941089324000    187.256462871000     30.756153995700
      35   12  2  -0.35000   -117.875088291000    186.799258195000     30.770495573400
      36   12  2  -0.35000   -120.007090358000    187.713667547000     30.741812418000
      37   13  1   0.70000    160.774562445000      8.434298091270     48.959780839200
      38   13  2  -0.35000    159.714786910000      8.502420107430     49.426509031900
      39   13  2  -0.35000    161.834337981000      8.366176075120     48.493052646500
      40   14  1   0.70000   -272.619217974000   -116.950193825000    197.327190359000
      41   14  2  -0.35000   -273.315115472000   -116.081627392000    197.654175103000
      42   14  2  -0.35000   -271.923320475000   -117.818760258000    197.000205614000
      43   15  1   0.70000    252.598090420000    172.608614761000   -175.214346631000
      44   15  2  -0.35000    252.230009997000    172.643140307000   -174.114835472000
      45   15  2  -0.35000    252.966170844000    172.574089216000   -176.313857790000
      46   16  1   0.70000   -136.882627551000    158.278787051000    213.135130454000
      47   16  2  -0.35000   -137.608340906000    157.567265662000    212.575954776000
      48   16  2  -0.35000   -136.156914197000    158.990308441000    213.694306132000
      49   17  1   0.70000    -24.221362806100    196.903634491000    153.373911270000
      50   17  2  -0.35000    -24.312796848700    195.774268195000    153.622450171000
      51   17  2  -0.35000    -24.129928763400    198.033000787000    153.125372369000
      52   18  1   0.70000     30.953420848900    245.815376507000   -222.019785741000
      53   18  2  -0.35000     31.132339168300    244.773101102000   -222.496493423000
      54   18  2  -0.35000     30.774502529500    246.857651913000   -221.543078059000
      55   19  1   0.70000    256.782115550000     61.515942081400    219.238054300000
      56   19  2  -0.35000    256.040830031000     61.583091823200    220.127765877000
      57   19  2  -0.35000    257.523401069000     61.448792339700    218.348342722000
      58   20  1   0.70000   -161.287251257000    224.296091192000   -230.551046100000
      59   20  2  -0.35000   -161.007751289000    225.319493392000   -231.020223790000
      60   20  2  -0.35000   -161.566751226000    223.272688992000   -230.081868410000
      61   21  1   0.70000   -128.283576280000   -241.644260121000     61.864842762800
      62   21  2  -0.35000   -128.059479309000   -242.151781227000     60.846116659400
      63   21  2  -0.35000   -128.507673252000   -241.136739014000     62.883568866200
      64   22  1   0.70000    -22.246458585600   -232.859361972000   -255.519889722000
      65   22  2  -0.35000    -23.343492141100   -232.503999134000   -255.394053990000
      66   22  2  -0.35000    -21.149425030100   -233.214724810000   -255.645725453000
      67   23  1   0.70000     -4.791516081930     53.896016343000    190.527643706000
      68   23  2  -0.35000     -4.218112327830     53.187686135700    189.809955437000
      69   23  2  -0.35000     -5.364919836030     54.604346550300    191.245331976000
      70   24  1   0.70000      3.270591696320    -50.943498927000    -36.983772223400
      71   24  2  -0.35000      3.084464379220    -49.994290677200    -36.343490785000
      72   24  2  -0.35000      3.456719013420    -51.892707176800    -37.624053661800
      73   25  1   0.70000     55.583991092900    224.996974061000     31.990761521200
      74   25  2  -0.35000     56.379548743400    225.154664905000     31.161411400600
      75   25  2  -0.35000     54.788433442400    224.839283218000     32.820111641800
      76   26  1   0.70000   -123.902993574000    123.389787227000   -214.878021487000
      77   26  2  -0.35000   -124.721281227000    124.174085025000   -214.631278134000
      78   26  2  -0.35000   -123.084705922000    122.605489429000   -215.124764840000
      79   27  1   0.70000    270.870573110000   -222.074938004000    205.736899587000
      80   27  2  -0.35000    270.579276544000   -221.299721927000    206.549171922000
      81   27  2  -0.35000    271.161869676000   -222.850154080000    204.924627253000
      82   28  1   0.70000    -31.083345037700      4.232591125200    137.649020523000
      83   28  2  -0.35000    -31.404270438900      3.783370776490    136.628820559000
      84   28  2  -0.35000    -30.762419636600      4.681811473910    138.669220486000
      85   29  1   0.70000    207.692991511000    -99.910047285000      4.869103264930
      86   29  2  -0.35000    208.496766761000   -100.341307660000      4.152472372800
      87   29  2  -0.35000    206.889216260000    -99.478786909900      5.585734157050
      88   30  1   0.70000    238.703756429000    180.319418318000    244.800286722000
      89   30  2  -0.35000    238.903123568000    180.908661156000    245.779391222000
      90   30  2  -0.35000    238.504389291000    179.730175479000    243.821182222000
      91   31  1   0.70000    -56.981948424300   -130.501644644000   -232.378190434000
      92   31  2  -0.35000    -57.459541643500   -129.804993171000   -233.173288819000
      93   31  2  -0.35000    -56.504355205200   -131.198296117000   -231.583092049000
      94   32  1   0.70000    117.817508300000   -219.346797336000   -228.574926113000
      95   32  2  -0.35000    117.851785464000   -219.727940878000   -229.669985325000
      96   32  2  -0.35000    117.783231137000   -218.965653794000   -227.479866902000
      97   33  1   0.70000   -245.454531857000    -83.999612825500   -198.666307063000
      98   33  2  -0.35000   -244.753655936000    -83.631017208100   -197.818657245000
      99   33  2  -0.35000   -246.155407778000    -84.368208443000   -199.513956881000
     100   34  1   0.70000    178.700792252000   -224.744259073000     26.849297115300
     101   34  2  -0.35000    178.159388844000   -224.868735207000     27.867623213600
     102   34  2  -0.35000    179.242195659000   -224.619782939000     25.830971016900
     103   35  1   0.70000     90.011554400300   -256.566202965000   -160.092782251000
     104   35  2  -0.35000     90.592043230100   -256.221274616000   -159.149565864000
     105   35  2  -0.35000     89.431065570500   -256.911131313000   -161.035998638000
     106   36  1   0.70000     57.303602665600    131.052069548000   -147.496660674000
     107   36  2  -0.35000     56.454875091600    131.455072988000   -146.816330069000
     108   36  2  -0.35000     58.152330239500    130.649066107000   -148.176991279000
     109   37  1   0.70000    205.930808886000   -243.319710119000    174.637042562000
     110   37  2  -0.35000    206.129477098000   -244.460973802000    174.576642668000
     111   37  2  -0.35000    205.732140674000   -242.178446436000    174.697442456000
     112   38  1   0.70000    -40.987888938300   -245.987717739000    148.728957501000
     113   38  2  -0.35000    -40.797070639700   -247.131914900000    148.727846658000
     114   38  2  -0.35000    -41.178707236800   -244.843520578000    148.730068344000
     115   39  1   0.70000    189.611165441000    -29.147632154200   -237.951405007000
     116   39  2  -0.35000    190.362603371000    -29.049979357400   -238.829701636000
     117   39  2  -0.35000    188.859727510000    -29.245284951100   -237.073108379000
     118   40  1   0.70000    -77.978577463800   -172.420992932000    -35.352616880700
     119   40  2  -0.35000    -78.496942263300   -173.360687052000    -35.792926880400
     120   40  2  -0.35000    -77.460212664300   -171.481298812000    -34.912306881000
     121   41  1   0.70000    206.521408626000   -251.607054277000     77.614009574100
     122   41  2  -0.35000    205.793575662000   -252.354499973000     77.106876348200
     123   41  2  -0.35000    207.249241590000   -250.859608581000     78.121142800000
     124   42  1   0.70000    193.215641129000    202.856552593000    -75.861856629200
     125   42  2  -0.35000    192.175671537000    202.496258909000    -76.228260379900
     126   42  2  -0.35000    194.255610721000    203.216846278000    -75.495452878500
     127   43  1   0.70000   -190.122665544000   -119.615273661000   -157.088085248000
     128   43  2  -0.35000   -191.041483390000   -119.835203439000   -156.415029040000
     129   43  2  -0.35000   -189.203847698000   -119.395343882000   -157.761141455000
     130   44  1   0.70000   -220.250158908000   -251.388019186000     28.349321718800
     131   44  2  -0.35000   -220.432900150000   -251.870575620000     29.388236983100
     132   44  2  -0.35000   -220.067417666000   -250.905462752000     27.310406454500
     133   45  1   0.70000    145.914698595000   -130.890766304000   -135.221030784000
     134   45  2  -0.35000    146.922882274000   -130.397737588000   -135.514438954000
     135   45  2  -0.35000    144.906514916000   -131.383795020000   -134.927622613000
     136   46  1   0.70000    255.924446807000     69.477788379300    -81.775370986600
     137   46  2  -0.35000    255.708712059000     69.960702452600    -82.807772321500
     138   46  2  -0.35000    256.140181555000     68.994874305900    -80.742969651800
     139   47  1   0.70000    -24.087790093300      5.204500658030     14.333357566600
     140   47  2  -0.35000    -24.822991011700      5.216196446500     15.230543622000
     141   47  2  -0.35000    -23.352589174900      5.192804869560     13.436171511200
     142   48  1   0.70000    127.622346198000    -87.154707161700    129.482204876000
     143   48  2  -0.35000    126.893504707000    -86.420863817700    130.007432473000
     144   48  2  -0.35000    128.351187688000    -87.888550505700    128.956977280000
     145   49  1   0.70000    199.870576348000    112.889894464000   -217.411237187000
     146   49  2  -0.35000    200.714052881000    112.327947175000   -217.975473469000
     147   49  2  -0.35000    199.027099815000    113.451841754000   -216.847000905000
     148   50  1   0.70000     76.128628279800   -195.992535437000    230.680565736000
     149   50  2  -0.35000     75.632244942900   -196.103444302000    231.723112045000
     150   50  2  -0.35000     76.625011616700   -195.881626572000    229.638019427000
     151   51  1   0.70000     15.545638864400     55.313879721700    274.076919628000
     152   51  2  -0.35000     16.503016540800     54.855199571100    273.609329525000
     153   51  2  -0.35000     14.588261188100     55.772559872400    274.544509731000
     154   52  1   0.70000   -209.530144155000     84.553946474800    159.792392903000
     155   52  2  -0.35000   -208.401537662000     84.419661830200    160.024373543000
     156   52  2  -0.35000   -210.658750648000     84.688231119400    159.560412262000
     157   53  1   0.70000    -15.378474126900    272.062576126000   -123.913764929000
     158   53  2  -0.35000    -15.057954573800    273.093811968000   -124.337344737000
     159   53  2  -0.35000    -15.698993680100    271.031340284000   -123.490185121000
     160   54  1   0.70000   -212.215205084000     60.857322576600    -58.283558361400
     161   54  2  -0.35000   -211.187063088000     60.458376762100    -58.643233595800
     162   54  2  -0.35000   -213.243347079000     61.256268391100    -57.923883127000
     163   55  1   0.70000   -193.255431641000   -266.848590021000    -84.814765454200
     164   55  2  -0.35000   -193.469492520000   -266.367093001000    -85.848176582300
     165   55  2  -0.35000   -193.041370763000   -267.330087041000    -83.781354326100
     166   56  1   0.70000     31.658527183200   -249.573017904000   -264.792958366000
     167   56  2  -0.35000     32.069952828200   -250.149230364000   -265.711820782000
     168   56  2  -0.35000     31.247101538200   -248.996805445000   -263.874095949000
     169   57  1   0.70000    207.834162003000   -116.801493720000    102.056219458000
     170   57  2  -0.35000    207.666070408000   -116.035397526000    102.910878359000
     171   57  2  -0.35000    208.002253597000   -117.567589914000    101.201560557000
     172   58  1   0.70000    208.268890528000     80.479312449400   -194.621310121000
     173   58  2  -0.35000    209.425517740000     80.552238731000   -194.571357648000
     174   58  2  -0.35000    207.112263316000     80.406386167800   -194.671262593000
     175   59  1   0.70000    -84.021081815600    123.330157632000   -209.187667299000
     176   59  2  -0.35000    -83.035704504700    123.824166308000   -208.826299089000
     177   59  2  -0.35000    -85.006459126400    122.836148956000   -209.549035509000
     178   60  1   0.70000     38.418235102300   -106.926015436000    -23.817962658000
     179   60  2  -0.35000     39.333040074300   -106.432042207000    -24.332474380300
     180   60  2  -0.35000     37.503430130300   -107.419988665000    -23.303450935700
     181   61  1   0.70000   -119.911448150000    152.930950970000    273.570147901000
     182   61  2  -0.35000   -119.800237376000    151.920109497000    273.012087259000
     183   61  2  -0.35000   -120.022658924000    153.941792444000    274.128208542000
     184   62  1   0.70000   -145.007758186000     10.619718079500   -135.052467296000
     185   62  2  -0.35000   -144.640367102000     10.199502339900   -136.069346111000
     186   62  2  -0.35000   -145.375149270000     11.039933819100   -134.035588481000
     187   63  1   0.70000    -78.339628328500    106.414547869000   -254.708294188000
     188   63  2  -0.35000    -77.660819203200    107.265493029000   -254.307407040000
     189   63  2  -0.35000    -79.018437453900    105.563602708000   -255.109181337000
     190   64  1   0.70000   -260.569604280000   -260.242768802000   -198.418308628000
     191   64  2  -0.35000   -260.453855363000   -259.188472874000   -197.948561584000
     192   64  2  -0.35000   -260.685353198000   -261.297064730000   -198.888055672000
     193   65  1   0.70000   -177.790093179000    157.144543899000     44.864025212800
     194   65  2  -0.35000   -178.004219315000    156.471393336000     45.784143855700
     195   65  2  -0.35000   -177.575967043000    157.817694463000     43.943906569900
     196   66  1   0.70000     -2.120662008610   -130.382994691000   -248.356710295000
     197   66  2  -0.35000     -1.677412007100   -130.282058035000   -249.423922190000
     198   66  2  -0.35000     -2.563912010110   -130.483931347000   -247.289498401000
     199   67  1   0.70000    112.795881835000    197.284057808000   -195.993636009000
     200   67  2  -0.35000    111.757319705000    196.933750486000   -196.373469499000
     201   67  2  -0.35000    113.834443966000    197.634365130000   -195.613802518000
     202   68  1   0.70000   -227.243051369000    134.410612381000   -108.655556406000
     203   68  2  -0.35000   -226.158263918000    134.603644334000   -108.292823928000
     204   68  2  -0.35000   -228.327838821000    134.217580429000   -109.018288884000
     205   69  1   0.70000    272.283456582000   -246.790043963000   -108.201922219000
     206   69  2  -0.35000    272.253259580000   -246.055781135000   -109.099444498000
     207   69  2  -0.35000    272.313653584000   -247.524306791000   -107.304399941000
     208   70  1   0.70000    -47.829763813200    125.077640228000    105.470468142000
     209   70  2  -0.35000    -48.782296921400    125.617007181000    105.086587994000
     210   70  2  -0.35000    -46.877230705100    124.538273275000    105.854348289000
     211   71  1   0.70000   -270.156412424000   -226.000087993000    271.384596926000
     212   71  2  -0.35000   -271.294965919000   -226.219067080000    271.421258894000
     213   71  2  -0.35000   -269.017858930000   -225.781108905000    271.347934958000
     214   72  1   0.70000     72.468593328000   -194.539396619000     73.781755098800
     215   72  2  -0.35000     72.254537125400   -193.948453985000     74.756725224400
     216   72  2  -0.35000     72.682649530600   -195.130339253000     72.806784973200
     217   73  1   0.70000   -157.481011539000   -122.619934074000     25.926755501300
     218   73  2  -0.35000   -157.984650579000   -122.895296150000     24.918726015100
     219   73  2  -0.35000   -156.977372499000   -122.344571999000     26.934784987600
     220   74  1   0.70000   -108.699846049000   -125.578515344000     53.372573427600
     221   74  2  -0.35000   -108.407876524000   -125.166596826000     54.416928219300
     222   74  2  -0.35000   -108.991815574000   -125.990433861000     52.328218635900
     223   75  1   0.70000   -178.305335129000    -73.634539917700    124.815383280000
     224   75  2  -0.35000   -177.180331897000    -73.736457689800    124.551602132000
     225   75  2  -0.35000   -179.430338362000    -73.532622145700    125.079164429000
     226   76  1   0.70000   -243.779630726000    -95.789463240900    -60.875684670800
     227   76  2  -0.35000   -244.676073323000    -96.100265102700    -61.543062279600
     228   76  2  -0.35000   -242.883188129000    -95.478661379200    -60.208307062000
     229   77  1   0.70000   -240.588580521000     35.172506969300    215.025281701000
     230   77  2  -0.35000   -240.410926346000     34.321434710200    214.257352665000
     231   77  2  -0.35000   -240.766234697000     36.023579228400    215.793210737000
     232   78  1   0.70000    -91.532737702300   -226.071358330000    105.254094529000
     233   78  2  -0.35000    -91.624960108400   -224.924208502000    105.399498446000
     234   78  2  -0.35000    -91.440515296200   -227.218508158000    105.108690611000
     235   79  1   0.70000   -110.335834007000     53.598020472100   -103.833491284000
     236   79  2  -0.35000   -110.980145296000     54.399673720400   -104.369975238000
     237   79  2  -0.35000   -109.691522718000     52.796367223900   -103.297007331000
     238   80  1   0.70000    -66.553759152800   -186.286752770000     65.232027987500
     239   80  2  -0.35000    -66.720127317500   -186.317874381000     66.379613748700
     240   80  2  -0.35000    -66.387390988100   -186.255631160000     64.084442226400
     241   81  1   0.70000    248.401723700000    -64.359799118900    250.749874223000
     242   81  2  -0.35000    247.920166636000    -64.251581485300    251.799632166000
     243   81  2  -0.35000    248.883280764000    -64.468016752600    249.700116281000
     244   82  1   0.70000    235.835334531000     70.111442888400   -213.074575312000
     245   82  2  -0.35000    235.989779629000     69.520656831000   -212.088310365000
     246   82  2  -0.35000    235.680889434000     70.702228945700   -214.060840260000
     247   83  1   0.70000    144.114073430000   -167.919430495000      0.588008199238
     248   83  2  -0.35000    143.018580779000   -168.102094564000      0.253150483616
     249   83  2  -0.35000    145.209566081000   -167.736766427000      0.922865914860
     250   84  1   0.70000    241.374244550000    177.229385827000     53.915103347500
     251   84  2  -0.35000    241.117432934000    177.961616052000     54.777360091100
     252   84  2  -0.35000    241.631056166000    176.497155602000     53.052846603900
     253   85  1   0.70000    169.333416434000    165.928455342000    177.051029274000
     254   85  2  -0.35000    170.172039179000    165.711728694000    177.822613004000
     255   85  2  -0.35000    168.494793689000    166.145181990000    176.279445544000
     256   86  1   0.70000   -179.026281060000    158.557688411000   -208.010491039000
     257   86  2  -0.35000   -178.153846026000    159.314402981000   -208.119303584000
     258   86  2  -0.35000   -179.898716095000    157.800973840000   -207.901678493000
     259   87  1   0.70000    170.929479381000   -223.510292363000    178.514408330000
     260   87  2  -0.35000    171.723797553000   -223.788435934000    177.716100874000
     261   87  2  -0.35000    170.135161209000   -223.232148792000    179.312715787000
     262   88  1   0.70000    -95.814595992900   -141.053912461000    -86.219648767500
     263   88  2  -0.35000    -95.883076510400   -141.022653034000    -87.377203633100
     264   88  2  -0.35000    -95.746115475300   -141.085171888000    -85.062093901900
     265   89  1   0.70000   -263.420536614000    -96.380421052600    155.392004657000
     266   89  2  -0.35000   -263.773221059000    -97.437461763100    155.069702596000
     267   89  2  -0.35000   -263.067852169000    -95.323380342100    155.714306719000
     268   90  1   0.70000    257.246955914000   -195.648051796000    238.688506923000
     269   90  2  -0.35000    256.269934943000   -195.656201434000    239.313777749000
     270   90  2  -0.35000    258.223976886000   -195.639902158000    238.063236098000
     271   91  1   0.70000     90.054529833400    130.940588924000    104.524436836000
     272   91  2  -0.35000     90.818026630300    130.905419343000    105.397039690000
     273   91  2  -0.35000     89.291033036500    130.975758505000    103.651833981000
     274   92  1   0.70000    201.265026435000     26.513389011600    255.994213239000
     275   92  2  -0.35000    202.083063827000     26.245547968500    255.216604083000
     276   92  2  -0.35000    200.446989042000     26.781230054600    256.771822396000
     277   93  1   0.70000   -173.800715916000     83.934231750400    114.355842342000
     278   93  2  -0.35000   -174.198874024000     84.940795162600    113.938828890000
     279   93  2  -0.35000   -173.402557809000     82.927668338200    114.772855794000
     280   94  1   0.70000    128.788939188000     90.097599098900   -268.000705359000
     281   94  2  -0.35000    127.805948969000     89.732700831900   -268.496870135000
     282   94  2  -0.35000    129.771929407000     90.462497365800   -267.504540583000
     283   95  1   0.70000     96.081984651200    264.940052267000    141.380194015000
     284   95  2  -0.35000     96.441796840800    264.843208720000    140.281669315000
     285   95  2  -0.35000     95.722172461600    265.036895814000    142.478718714000
     286   96  1   0.70000   -116.507007378000    -34.446897684800    -35.642822433200
     287   96  2  -0.35000   -116.855672610000    -34.997033213800    -36.602709643000
     288   96  2  -0.35000   -116.158342146000    -33.896762155700    -34.682935223300
     289   97  1   0.70000   -186.859622450000     66.466936445500   -112.189507186000
     290   97  2  -0.35000   -185.712129228000     66.315250130300   -112.113018189000
     291   97  2  -0.35000   -188.007115672000     66.618622760700   -112.265996183000
     292   98  1   0.70000    -24.081880277900   -156.238906539000    260.057736699000
     293   98  2  -0.35000    -23.873882864600   -157.142728374000    259.360999183000
     294   98  2  -0.35000    -24.289877691200   -155.335084704000    260.754474215000
     295   99  1   0.70000   -118.442490831000   -183.045496203000    214.719443491000
     296   99  2  -0.35000   -117.573740635000   -183.769441202000    214.977855440000
     297   99  2  -0.35000   -119.311241027000   -182.321551204000    214.461031543000
     298  100  1   0.70000    268.657754779000    139.148380694000    -41.625570471200
     299  100  2  -0.35000    269.551341806000    138.474450021000    -41.930397754000
     300  100  2  -0.35000    267.764167752000    139.822311367000    -41.320743188300
     301  101  1   0.70000    114.264642829000   -238.567055733000   -162.760040847000
     302  101  2  -0.35000    113.317667442000   -237.949348049000   -162.500666919000
     303  101  2  -0.35000    115.211618215000   -239.184763417000   -163.019414774000
     304  102  1   0.70000    -90.529462371000     78.121033235000   -158.751905671000
     305  102  2  -0.35000    -90.869940222800     77.164770444500   -159.313364760000
     306  102  2  -0.35000    -90.188984519100     79.077296025500   -158.190446583000
     307  103  1   0.70000   -113.924800453000     88.413963447800   -253.551121663000
     308  103  2  -0.35000   -113.535215711000     88.343083158800   -254.641442586000
     309  103  2  -0.35000   -114.314385195000     88.484843736800   -252.460800741000
     310  104  1   0.70000      8.664374846860    -74.402625332000   -126.008711410000
     311  104  2  -0.35000      8.682930485120    -74.589482540800   -124.864010544000
     312  104  2  -0.35000      8.645819208590    -74.215768123200   -127.153412275000
     313  105  1   0.70000    203.442551706000    -84.861242313200     -8.974735221030
     314  105  2  -0.35000    204.343799055000    -85.000034778000     -8.257734616020
     315  105  2  -0.35000    202.541304357000    -84.722449848500     -9.691735826050
     316  106  1   0.70000    147.751477771000      0.289233265280     51.682292735900
     317  106  2  -0.35000    147.384899706000     -0.439925398455     52.506639850700
     318  106  2  -0.35000    148.118055835000      1.018391929020     50.857945621200
     319  107  1   0.70000    213.789915266000   -103.816972059000    -16.453936278300
     320  107  2  -0.35000    213.925231127000   -102.893869765000    -15.764609235600
     321  107  2  -0.35000    213.654599405000   -104.740074354000    -17.143263320900
     322  108  1   0.70000    225.486751273000    132.157774825000     91.117098712000
     323  108  2  -0.35000    225.961499444000    131.296313807000     91.731996336000
     324  108  2  -0.35000    225.012003102000    133.019235844000     90.502201087900
     325  109  1   0.70000   -251.858325549000   -264.451800543000     -1.464775370500
     326  109  2  -0.35000   -251.041550743000   -265.162760406000     -1.880726078510
     327  109  2  -0.35000   -252.675100354000   -263.740840681000     -1.048824662490
     328  110  1   0.70000    178.515034919000    206.669495500000    -95.349930156300
     329  110  2  -0.35000    179.244136040000    205.808310749000    -95.080909003900
     330  110  2  -0.35000    177.785933798000    207.530680251000    -95.618951308700
     331  111  1   0.70000     79.098849711200     13.018272836500     69.687564827900
     332  111  2  -0.35000     78.260753093400     12.217009834500     69.653335296400
     333  111  2  -0.35000     79.936946329000     13.819535838600     69.721794359300
     334  112  1   0.70000    -83.709733233200     56.765391157500   -177.958208803000
     335  112  2  -0.35000    -82.992431297300     56.843180909200   -177.049899006000
     336  112  2  -0.35000    -84.427035169100     56.687601405800   -178.866518600000
     337  113  1   0.70000    244.183192845000    216.370765290000    251.783984709000
     338  113  2  -0.35000    244.789196975000    216.006894786000    250.864225365000
     339  113  2  -0.35000    243.577188715000    216.734635793000    252.703744053000
     340  114  1   0.70000    259.189821953000     12.281626283300   -265.825700183000