LAMMPS Atom File

         3000 atoms
         2000 bonds
         1000 angles
           0 dihedrals
           0 impropers

           2 atom types
           1 bond types
           1 angle types

         0.0  43.2678251604 xlo xhi
         0.0  43.2678251604 ylo yhi
         0.0  43.2678251604 zlo zhi

Masses

         1   12.01070
         2   15.99990

Atoms

       1    1  1   0.70000    -10.333868892800     18.796509476800    -18.615826671300
       2    1  2  -0.35000    -10.443134557000     18.198248465800    -17.628028727800
       3    1  2  -0.35000    -10.224603228600     19.394770487900    -19.603624614900
       4    2  1   0.70000     19.515099503800     10.106741287700    -18.721890872200
       5    2  2  -0.35000     18.448488287900      9.873437391790    -19.113694147100
       6    2  2  -0.35000     20.581710719700     10.340045183600    -18.330087597200
       7    3  1   0.70000      3.841758200510     18.389042917600     -2.927094775740
       8    3  2  -0.35000      4.878116460900     18.784566730800     -2.587797753510
       9    3  2  -0.35000      2.805399940120     17.993519104400     -3.266391797980
      10    4  1   0.70000     -1.031737267820     10.450603060000    -21.099316909200
      11    4  2  -0.35000     -1.311363027930      9.357829023820    -20.828661519300
      12    4  2  -0.35000     -0.752111507709     11.543377096200    -21.369972299200
      13    5  1   0.70000    -21.449467369800     16.381549855900     -7.656979025040
      14    5  2  -0.35000    -21.780801341732     17.487293156100     -7.542307524340
      15    5  2  -0.35000    -21.118133397800     15.275806555700     -7.771650525730
      16    6  1   0.70000      9.194822274410      1.204786059890     -3.226888865920
      17    6  2  -0.35000     10.247900454200      1.672845118760     -3.359354200030
      18    6  2  -0.35000      8.141744094660      0.736727001023     -3.094423531810
      19    7  1   0.70000      1.670400926260    -16.629892317600     19.213605762200
      20    7  2  -0.35000      1.074142616140    -17.324480724400     19.926082409400
      21    7  2  -0.35000      2.266659236380    -15.935303910900     18.501129115000
      22    8  1   0.70000     -7.609228079440    -19.502518157600     -8.932044804430
      23    8  2  -0.35000     -6.833042107650    -18.675624031300     -8.688361729410
      24    8  2  -0.35000     -8.385414051230    -20.329412283900     -9.175727879450
      25    9  1   0.70000     -0.269040786356      0.184975805663      9.713257676810
      26    9  2  -0.35000     -0.779601050611      0.576298225193      8.747962395280
      27    9  2  -0.35000      0.241519477898     -0.206346613867     10.678552958300
      28   10  1   0.70000     10.550898428200    -12.762900012600     18.980771363100
      29   10  2  -0.35000     10.850845932500    -13.867028042300     18.789635838300
      30   10  2  -0.35000     10.250950924000    -11.658771983000     19.171906887800
      31   11  1   0.70000     -9.299641013460     21.043970922000      1.587717466380
      32   11  2  -0.35000     -9.261062106230     22.139928623232      1.209579415870
      33   11  2  -0.35000     -9.338219920700     19.948013220900      1.965855516890
      34   12  1   0.70000     -8.737740374580     12.806158722000      3.161517381890
      35   12  2  -0.35000     -9.696374765820     12.734602023300      3.810747497330
      36   12  2  -0.35000     -7.779105983340     12.877715420700      2.512287266440
      37   13  1   0.70000    -17.780001125500     -8.625436843080     15.806839143900
      38   13  2  -0.35000    -18.915234463800     -8.693595263430     16.035311674600
      39   13  2  -0.35000    -16.644767787200     -8.557278422730     15.578366613200
      40   14  1   0.70000     19.883569982900     11.433005369600    -13.055349627600
      41   14  2  -0.35000     19.024010949200     10.849044752800    -12.539841853100
      42   14  2  -0.35000     20.743129016600     12.016965986500    -13.570857402000
      43   15  1   0.70000    -12.650874948000     14.774067932600     18.396655667700
      44   15  2  -0.35000    -11.531005429000     14.987903909100     18.182724754600
      45   15  2  -0.35000    -13.770744467000     14.560231956200     18.610586580900
      46   16  1   0.70000     -5.023575446500     17.444061413700     12.878066098700
      47   16  2  -0.35000     -3.985209790850     16.955508126400     12.708618612400
      48   16  2  -0.35000     -6.061941102150     17.932614701000     13.047513585100
      49   17  1   0.70000      1.233082285920     19.857291031600    -17.396873520100
      50   17  2  -0.35000      0.495304045549     19.421393886300    -18.178715541700
      51   17  2  -0.35000      1.970860526300     20.293188177000    -16.615031498500
      52   18  1   0.70000     19.711578216200      6.113300929510    -20.090838114700
      53   18  2  -0.35000     18.566262118200      6.283800642720    -20.021694181100
      54   18  2  -0.35000     20.856894314200      5.942801216300    -20.159982048300
      55   19  1   0.70000    -10.059610080700    -19.338128382800      4.678584505460
      56   19  2  -0.35000     -9.984369805440    -19.220654222200      3.527003538890
      57   19  2  -0.35000    -10.134850356000    -19.455602543500      5.830165472020
      58   20  1   0.70000     -1.102083132350    -14.612799559500    -16.588967839700
      59   20  2  -0.35000     -1.427070633030    -13.700773595800    -15.950068969700
      60   20  2  -0.35000     -0.777095631667    -15.524825523200    -17.227866709600
      61   21  1   0.70000     -1.063895252850      4.819818616790     13.175008532400
      62   21  2  -0.35000     -0.687650769735      3.817578132000     13.621723317900
      63   21  2  -0.35000     -1.440139735970      5.822059101580     12.728293746900
      64   22  1   0.70000     -1.073699298830     -5.952112063290     -4.053971155490
      65   22  2  -0.35000     -2.197779829000     -5.894463611020     -3.773400990230
      66   22  2  -0.35000      0.050381231346     -6.009760515560     -4.334541320760
      67   23  1   0.70000      3.560657294400     18.198148135400      3.011692101500
      68   23  2  -0.35000      4.491111897350     18.304846441100      2.327243634910
      69   23  2  -0.35000      2.630202691450     18.091449829800      3.696140568100
      70   24  1   0.70000    -13.005802652100      8.632937404750    -16.218007136400
      71   24  2  -0.35000    -13.068265050400      7.631338780740    -15.636200772400
      72   24  2  -0.35000    -12.943340253700      9.634536028750    -16.799813500300
      73   25  1   0.70000     21.375802401800    -16.576421887800     17.580404559800
      74   25  2  -0.35000     21.435223301100    -16.727557608400     16.431828419300
      75   25  2  -0.35000     21.316381502600    -16.425286167300     18.728980700400
      76   26  1   0.70000     11.833163282600     -3.745411249630     -4.782977285500
      77   26  2  -0.35000     12.458918338700     -2.769420448360     -4.821351308780
      78   26  2  -0.35000     11.207408226500     -4.721402050890     -4.744603262220
      79   27  1   0.70000     18.218083181000     18.283302168400     19.388077269500
      80   27  2  -0.35000     17.529879978700     17.349788384900     19.411063529800
      81   27  2  -0.35000     18.906286383300     19.216815952000     19.365091009100
      82   28  1   0.70000     -3.049137759280     -8.506420514130    -15.936170921600
      83   28  2  -0.35000     -4.181508533070     -8.736054748880    -16.039149312200
      84   28  2  -0.35000     -1.916766985500     -8.276786279390    -15.833192531100
      85   29  1   0.70000      7.465743851490    -17.942647804600    -20.419976263700
      86   29  2  -0.35000      8.264259195950    -17.101236655300    -20.420699159900
      87   29  2  -0.35000      6.667228507020    -18.784058953800    -20.419253367400
      88   30  1   0.70000    -19.187303378000     -4.780858684020    -11.460125753100
      89   30  2  -0.35000    -18.916724100400     -4.791763639540    -10.332177200900
      90   30  2  -0.35000    -19.457882655600     -4.769953728490    -12.588074305300
      91   31  1   0.70000      9.434987049820    -17.317886121700      1.080157609200
      92   31  2  -0.35000      9.457314267500    -18.370970647200      0.594241487351
      93   31  2  -0.35000      9.412659832140    -16.264801596200      1.566073731060
      94   32  1   0.70000      9.364360686020     21.040721825700    -12.101515277000
      95   32  2  -0.35000      9.402113408900     20.008348675400    -12.629132951400
      96   32  2  -0.35000      9.326607963130     22.073094976132    -11.573897602600
      97   33  1   0.70000     -0.202371590255      9.112519299920    -14.403047881400
      98   33  2  -0.35000     -1.028054614670      8.551536701850    -13.812162048200
      99   33  2  -0.35000      0.623311434161      9.673501898000    -14.993933714600
     100   34  1   0.70000     14.451254733600    -19.053144885400     13.873095226600
     101   34  2  -0.35000     14.999443368900    -19.831163443700     13.209938877600
     102   34  2  -0.35000     13.903066098400    -18.275126327200     14.536251575600
     103   35  1   0.70000     -5.451570878270    -20.056091211100     12.995088624500
     104   35  2  -0.35000     -6.052070400500    -19.154296614000     12.580641006100
     105   35  2  -0.35000     -4.851071356040    -20.957885808300     13.409536242800
     106   36  1   0.70000     15.336755095200     -5.131614990510    -18.984849142600
     107   36  2  -0.35000     15.310035658900     -4.230052108430    -18.255417554700
     108   36  2  -0.35000     15.363474531500     -6.033177872590    -19.714280730400
     109   37  1   0.70000     -5.375335205600    -10.455136329100      3.658463551390
     110   37  2  -0.35000     -5.544870069600     -9.670860298960      2.820746989250
     111   37  2  -0.35000     -5.205800341590    -11.239412359200      4.496180113530
     112   38  1   0.70000     15.954834518100    -21.150231440000      6.013046335540
     113   38  2  -0.35000     15.534978056700    -22.106149102432      6.518557932390
     114   38  2  -0.35000     16.374690979500    -20.194313777600      5.507534738690
     115   39  1   0.70000     14.540643434500     14.848034258700     -5.882031484300
     116   39  2  -0.35000     14.467546253900     13.840674695300     -5.311519861060
     117   39  2  -0.35000     14.613740615100     15.855393822100     -6.452543107550
     118   40  1   0.70000    -14.020551361200     -9.161607849330    -13.918305038000
     119   40  2  -0.35000    -13.403996687600     -9.467317173030    -14.852115588300
     120   40  2  -0.35000    -14.637106034800     -8.855898525620    -12.984494487700
     121   41  1   0.70000    -14.213510823900    -20.083478839200      4.313228580250
     122   41  2  -0.35000    -15.312466612400    -20.065502517300      4.684136960890
     123   41  2  -0.35000    -13.114555035400    -20.101455161200      3.942320199610
     124   42  1   0.70000     10.989983591800     -9.826054214220    -13.052053763200
     125   42  2  -0.35000     10.780336624800    -10.655888635200    -13.835011605600
     126   42  2  -0.35000     11.199630558800     -8.996219793280    -12.269095920700
     127   43  1   0.70000     19.244853251400      5.928099246410     -8.143955063520
     128   43  2  -0.35000     18.600319148400      6.832528511190     -8.478893110110
     129   43  2  -0.35000     19.889387354400      5.023669981630     -7.809017016920
     130   44  1   0.70000     -6.783257574440     -0.812358451336     -2.769962476640
     131   44  2  -0.35000     -7.427824046900     -1.724747776660     -2.457424828310
     132   44  2  -0.35000     -6.138691101970      0.100030873984     -3.082500124970
     133   45  1   0.70000      8.203523162090     -6.426885195260      7.357144422140
     134   45  2  -0.35000      7.707437451390     -6.595676070840      8.392039879640
     135   45  2  -0.35000      8.699608872800     -6.258094319680      6.322248964650
     136   46  1   0.70000     16.688024422600      8.127742678250    -15.538077023200
     137   46  2  -0.35000     17.711765669400      8.417541162960    -16.000214121900
     138   46  2  -0.35000     15.664283175900      7.837944193540    -15.075939924500
     139   47  1   0.70000     10.013872613900    -17.084480621500     16.425177164500
     140   47  2  -0.35000     10.266129826000    -15.955819146600     16.515119223000
     141   47  2  -0.35000      9.761615401850    -18.213142096500     16.335235105900
     142   48  1   0.70000      0.656685681938      2.152948483390     19.828122970100
     143   48  2  -0.35000      1.484664738290      2.715937475040     19.242380639800
     144   48  2  -0.35000     -0.171293374415      1.589959491750     20.413865300400
     145   49  1   0.70000    -14.467299617300      8.656834575540     14.747213804000
     146   49  2  -0.35000    -15.320117249300      9.426218378260     14.584884969000
     147   49  2  -0.35000    -13.614481985300      7.887450772820     14.909542639000
     148   50  1   0.70000     -1.440191328180     17.563919333600     -8.640312593290
     149   50  2  -0.35000     -0.709857304985     18.182451856500     -9.295774058770
     150   50  2  -0.35000     -2.170525351380     16.945386810800     -7.984851127800
     151   51  1   0.70000    -15.438344117000      9.852300169010     -4.929895080740
     152   51  2  -0.35000    -16.286316316800     10.526279865700     -4.514811334210
     153   51  2  -0.35000    -14.590371917100      9.178320472290     -5.344978827270
     154   52  1   0.70000    -20.757335633200    -20.613130077900     -6.285143168210
     155   52  2  -0.35000    -20.506852168100    -19.980138933800     -5.345898660540
     156   52  2  -0.35000    -21.007819098300    -21.246121222000     -7.224387675880
     157   53  1   0.70000      3.623179321010    -20.646599155200    -18.877983693900
     158   53  2  -0.35000      2.932857314340    -20.760638099300    -19.803213744500
     159   53  2  -0.35000      4.313501327670    -20.532560211200    -17.952753643400
     160   54  1   0.70000     13.452606440200    -12.842180860300     11.401729049100
     161   54  2  -0.35000     14.154579035200    -13.584371678500     10.852195369300
     162   54  2  -0.35000     12.750633845200    -12.099990042100     11.951262728800
     163   55  1   0.70000     -4.561587466390     12.097168032000    -18.551667141100
     164   55  2  -0.35000     -4.775648345190     12.578665052200    -19.585078269200
     165   55  2  -0.35000     -4.347526587590     11.615671011700    -17.518256013000
     166   56  1   0.70000      0.701399357207     -9.214177865890      0.040184548615
     167   56  2  -0.35000      1.507951020930     -8.395598270880     -0.117935217296
     168   56  2  -0.35000     -0.105152306516    -10.032757460900      0.198304314526
     169   57  1   0.70000     -9.598432037190     12.430737297700    -21.227652624400
     170   57  2  -0.35000     -9.050870054760     13.232405713600    -21.862557047432
     171   57  2  -0.35000    -10.145994019600     11.629068881800    -20.592748201300
     172   58  1   0.70000    -14.072518668500     -1.707079229240    -11.341885211700
     173   58  2  -0.35000    -14.405242737000     -0.949369012120    -12.154762767800
     174   58  2  -0.35000    -13.739794600100     -2.464789446360    -10.529007655600
     175   59  1   0.70000     -6.776258772400      9.172132753880    -19.978344382600
     176   59  2  -0.35000     -6.569472430180      9.381025608380    -18.856202152700
     177   59  2  -0.35000     -6.983045114620      8.963239899380    -21.100486612400
     178   60  1   0.70000    -16.194856193000     11.259987594400     -0.501349695196
     179   60  2  -0.35000    -17.015327365500     11.643550811200      0.223430487911
     180   60  2  -0.35000    -15.374385020500     10.876424377600     -1.226129878300
     181   61  1   0.70000      2.505186109930     -4.255152195220    -20.607908616800
     182   61  2  -0.35000      2.993366682880     -3.442732821910    -19.939137736700
     183   61  2  -0.35000      2.017005536980     -5.067571568540    -21.276679496800
     184   62  1   0.70000     11.076112844200     19.853051228800    -15.373104627500
     185   62  2  -0.35000     10.907070372200     18.830632957600    -15.894339240100
     186   62  2  -0.35000     11.245155316200     20.875469500100    -14.851870014900
     187   63  1   0.70000    -19.508393591300      6.586043223250     -7.475596072130
     188   63  2  -0.35000    -18.512358323700      6.718876125490     -8.055138275750
     189   63  2  -0.35000    -20.504428858900      6.453210321010     -6.896053868510
     190   64  1   0.70000    -19.638791327200    -17.608627862500    -10.579386075200
     191   64  2  -0.35000    -20.007966902300    -17.919144737900    -11.634321459400
     192   64  2  -0.35000    -19.269615752100    -17.298110987100     -9.524450690950
     193   65  1   0.70000     -3.961788265200     11.984347901400      9.843586055870
     194   65  2  -0.35000     -3.058449506460     12.060997760600      9.119912174870
     195   65  2  -0.35000     -4.865127023950     11.907698042200     10.567259936900
     196   66  1   0.70000     20.575469711600    -19.175067729900     20.090061471200
     197   66  2  -0.35000     19.536121001500    -18.968500167600     19.618167308300
     198   66  2  -0.35000     21.614818421700    -19.381635292300     20.561955634000
     199   67  1   0.70000      4.137638935530    -14.043039282000      0.915797197625
     200   67  2  -0.35000      4.868891862700    -13.559802021400      0.155961092676
     201   67  2  -0.35000      3.406386008350    -14.526276542700      1.675633302570
     202   68  1   0.70000    -15.847930064500     -9.935308949230     -5.109020721150
     203   68  2  -0.35000    -16.314542496800    -10.805895477100     -5.717257464160
     204   68  2  -0.35000    -15.381317632100     -9.064722421410     -4.500783978140
     205   69  1   0.70000     -6.181278543160     -8.481436203290      6.378773954310
     206   69  2  -0.35000     -6.996614418720     -8.693718615510      5.581426108320
     207   69  2  -0.35000     -5.365942667610     -8.269153791070      7.176121800290
     208   70  1   0.70000    -14.570529730800     -2.330187438350      5.543892083600
     209   70  2  -0.35000    -15.189921669100     -2.458208981410      6.516293292580
     210   70  2  -0.35000    -13.951137792500     -2.202165895290      4.571490874610
     211   71  1   0.70000    -19.802190669500     -8.422770426720     -6.523097137340
     212   71  2  -0.35000    -20.650447979200     -9.199662780350     -6.673089828470
     213   71  2  -0.35000    -18.953933359800     -7.645878073080     -6.373104446220
     214   72  1   0.70000    -16.617027341300      4.117040367410     17.344078515900
     215   72  2  -0.35000    -16.552898354200      3.200242252870     18.051869933100
     216   72  2  -0.35000    -16.681156328500      5.033838481940     16.636287098800
     217   73  1   0.70000     -8.783722896190    -19.788677120300     11.491685303300
     218   73  2  -0.35000     -8.504248263160    -20.894479950600     11.703094929700
     219   73  2  -0.35000     -9.063197529210    -18.682874290100     11.280275676900
     220   74  1   0.70000     -8.732269507640      6.144037774030     -3.889582232600
     221   74  2  -0.35000     -8.979212170600      5.018975806550     -3.752269121320
     222   74  2  -0.35000     -8.485326844690      7.269099741520     -4.026895343890
     223   75  1   0.70000     -5.445124572510    -14.879995641500      4.173133120750
     224   75  2  -0.35000     -5.182963166930    -15.725459020700      4.922841778800
     225   75  2  -0.35000     -5.707285978090    -14.034532262400      3.423424462700
     226   76  1   0.70000     20.366743353500     -5.316237681890    -15.924972159100
     227   76  2  -0.35000     20.335411405700     -5.707915970160    -17.016396195700
     228   76  2  -0.35000     20.398075301300     -4.924559393610    -14.833548122600
     229   77  1   0.70000     19.360532997300      5.433248809450    -16.472227998100
     230   77  2  -0.35000     18.372807648600      5.487869890800    -17.078045770200
     231   77  2  -0.35000     20.348258346000      5.378627728100    -15.866410225900
     232   78  1   0.70000      8.875831898740    -14.418519991300     -2.159786841420
     233   78  2  -0.35000      8.557859298500    -13.914089609300     -3.154796095260
     234   78  2  -0.35000      9.193804498990    -14.922950373300     -1.164777587580
     235   79  1   0.70000     17.429889933400     15.139621331600      5.974175670850
     236   79  2  -0.35000     17.786198789600     14.607914564100      6.941611411580
     237   79  2  -0.35000     17.073581077200     15.671328099000      5.006739930130
     238   80  1   0.70000     15.165530548700     12.910713856000     15.031760631700
     239   80  2  -0.35000     16.136864832900     13.167672988800     14.452035082400
     240   80  2  -0.35000     14.194196264600     12.653754723200     15.611486180900
     241   81  1   0.70000    -13.529004931900     13.634999955400    -15.499105797800
     242   81  2  -0.35000    -14.590640366000     13.168009895300    -15.520330523100
     243   81  2  -0.35000    -12.467369497900     14.101990015500    -15.477881072500
     244   82  1   0.70000     -8.463989161260     -9.761496533580    -10.546068371500
     245   82  2  -0.35000     -9.604126821910     -9.778858755110    -10.333031595300
     246   82  2  -0.35000     -7.323851500610     -9.744134312040    -10.759105147700
     247   83  1   0.70000    -21.117215852300     -7.965310058030     12.323587845500
     248   83  2  -0.35000    -22.212708503232     -8.147974126500     11.988730129900
     249   83  2  -0.35000    -20.021723201300     -7.782645989560     12.658445561100
     250   84  1   0.70000     18.892916572400    -15.182391471400     18.458152577700
     251   84  2  -0.35000     18.445707528700    -15.823969164000     17.601425004000
     252   84  2  -0.35000     19.340125616100    -14.540813778800     19.314880151500
     253   85  1   0.70000      4.727159414660     14.887382546900      3.026017214240
     254   85  2  -0.35000      5.585648470050     14.127430080300      3.202280625900
     255   85  2  -0.35000      3.868670359270     15.647335013500      2.849753802570
     256   86  1   0.70000     15.171198155400      0.072510078609     20.513840105800
     257   86  2  -0.35000     15.980261755000      0.271502761051     21.320944810300
     258   86  2  -0.35000     14.362134555800     -0.126482603832     19.706735401200
     259   87  1   0.70000    -13.773377079000      5.788656710380      7.952809870900
     260   87  2  -0.35000    -13.155520755900      4.812534278870      8.057874435020
     261   87  2  -0.35000    -14.391233402200      6.764779141890      7.847745306780
     262   88  1   0.70000      6.764363363250      8.640913911850     18.353815371700
     263   88  2  -0.35000      7.795471509800      9.019344170210     18.726919284400
     264   88  2  -0.35000      5.733255216710      8.262483653480     17.980711459000
     265   89  1   0.70000      7.551250566200    -21.001212595900      7.099995190060
     266   89  2  -0.35000      7.331935362570    -19.951518932900      6.657678498790
     267   89  2  -0.35000      7.770565769830    -22.050906258832      7.542311881330
     268   90  1   0.70000     -8.072103136390     -4.143637329630     -1.660212420080
     269   90  2  -0.35000     -7.401538930800     -4.430266132030     -2.562314174770
     270   90  2  -0.35000     -8.742667341980     -3.857008527220     -0.758110665392
     271   91  1   0.70000    -13.455222068600      3.937632548570     -8.054044842350
     272   91  2  -0.35000    -14.233444228300      3.372448550200     -7.405556355170
     273   91  2  -0.35000    -12.676999908800      4.502816546940     -8.702533329530
     274   92  1   0.70000     -6.603450286510    -12.900383571600     17.882252142200
     275   92  2  -0.35000     -7.681260575390    -13.001293488200     18.299076049800
     276   92  2  -0.35000     -5.525639997630    -12.799473655000     17.465428234600
     277   93  1   0.70000    -11.000400441500    -10.587693263200     16.841013623800
     278   93  2  -0.35000    -10.388864716800     -9.608146915100     16.730954506900
     279   93  2  -0.35000    -11.611936166200    -11.567239611400     16.951072740700
     280   94  1   0.70000    -21.111585955500     10.792559053200     -0.985575799296
     281   94  2  -0.35000    -21.675272557632     11.727412180900     -0.593265916379
     282   94  2  -0.35000    -20.547899353400      9.857705925530     -1.377885682210
     283   95  1   0.70000     10.434773065900    -16.742747633500    -12.607749809300
     284   95  2  -0.35000      9.495709761750    -17.270508261800    -13.038132000000
     285   95  2  -0.35000     11.373836370100    -16.214987005300    -12.177367618700
     286   96  1   0.70000     -6.340301559700      7.438532393190    -12.543510505300
     287   96  2  -0.35000     -6.688966791720      6.888396864120    -13.503397715100
     288   96  2  -0.35000     -5.991636327680      7.988667922250    -11.583623295400
     289   97  1   0.70000    -10.849023533100      8.128965474310     21.200519342000
     290   97  2  -0.35000    -10.136722217100      7.292071799360     20.829256884900
     291   97  2  -0.35000    -11.561324849100      8.965859149260     21.571781799100
     292   98  1   0.70000      0.481865653734     -7.088071062970     -7.312929932190
     293   98  2  -0.35000     -0.483486672730     -7.515043662240     -6.831900530530
     294   98  2  -0.35000      1.447217980200     -6.661098463690     -7.793959333850
     295   99  1   0.70000     11.665587474600     -3.994804857220     -0.547059097769
     296   99  2  -0.35000     11.734746106300     -2.984579936470     -1.112976665220
     297   99  2  -0.35000     11.596428842800     -5.005029777970      0.018858469681
     298  100  1   0.70000     16.504375222300    -11.345412092300     -0.959650018587
     299  100  2  -0.35000     17.397962249600    -12.019342765500     -1.264477301440
     300  100  2  -0.35000     15.610788195000    -10.671481419100     -0.654822735731
     301  101  1   0.70000     18.817525634100     11.778374882500     11.809594528700
     302  101  2  -0.35000     18.030708540000     12.612753340300     11.635435263700
     303  101  2  -0.35000     19.604342728300     10.943996424800     11.983753793800
     304  102  1   0.70000    -18.765174895000    -21.612017238000      0.807944240415
     305  102  2  -0.35000    -19.649599782900    -22.362603311232      0.804315963051
     306  102  2  -0.35000    -17.880750007200    -20.861431164800      0.811572517780
     307  103  1   0.70000      8.383917786610      1.731123258480      6.901636173810
     308  103  2  -0.35000      8.641513110370      0.605226489568      7.009344645760
     309  103  2  -0.35000      8.126322462850      2.857020027390      6.793927701860
     310  104  1   0.70000     18.513387883300      0.756226779591    -20.089066839600
     311  104  2  -0.35000     19.179422202100      0.040618725430    -20.713489291900
     312  104  2  -0.35000     17.847353564400      1.471834833750    -19.464644387300
     313  105  1   0.70000    -14.612407467900      0.731615895171    -17.130706760000
     314  105  2  -0.35000    -15.179083522800     -0.200210952786    -16.735514434400
     315  105  2  -0.35000    -14.045731413000      1.663442743130    -17.525899085600
     316  106  1   0.70000    -12.236607149100    -12.754034570900    -20.228530662900
     317  106  2  -0.35000    -11.798711564500    -12.085845071700    -21.069583723200
     318  106  2  -0.35000    -12.674502733700    -13.422224070100    -19.387477602700
     319  107  1   0.70000     17.552080272400     -1.561727646990     -6.282108813560
     320  107  2  -0.35000     18.484162440900     -1.097449356580     -6.793253118370
     321  107  2  -0.35000     16.619998104000     -2.026005937410     -5.770964508740
     322  108  1   0.70000     20.842452679600    -14.872498212000      9.721119849100
     323  108  2  -0.35000     21.317200850600    -15.733959230300     10.336017473100
     324  108  2  -0.35000     20.367704508500    -14.011037193700      9.106222225090
     325  109  1   0.70000     -0.684331568308    -18.937129002700    -16.571441215200
     326  109  2  -0.35000      0.044840069456    -19.637132379400    -17.140566856100
     327  109  2  -0.35000     -1.413503206070    -18.237125625900    -16.002315574200
     328  110  1   0.70000    -14.932595926500     -7.082268975310     17.456340405700
     329  110  2  -0.35000    -15.580847518400     -7.353494346960     18.379274136400
     330  110  2  -0.35000    -14.284344334500     -6.811043603660     16.533406675000
     331  111  1   0.70000     -0.291175855551     10.771212841500     -1.175648385390
     332  111  2  -0.35000     -0.240252015878      9.631111824590     -0.967858987794
     333  111  2  -0.35000     -0.342099695224     11.911313858400     -1.383437782980
     334  112  1   0.70000     12.360711192700    -13.192586213100      6.480080189290
     335  112  2  -0.35000     13.089891186200    -13.882639157100      5.898940385510
     336  112  2  -0.35000     11.631531199200    -12.502533269100      7.061219993060
     337  113  1   0.70000      5.714362680560     -5.282253709800     19.554876720800
     338  113  2  -0.35000      4.763547230970     -5.774706795930     20.001015643900
     339  113  2  -0.35000      6.665178130160     -4.789800623670     19.108737797600
     340  114  1   0.70000     16.439707133700      2.285211119780      9.044124366850