LAMMPS Atom File

        1200 atoms
         800 bonds
         400 angles
           0 dihedrals
           0 impropers

           2 atom types
           1 bond types
           1 angle types

          0.0 30.0000000000 xlo xhi
          0.0 28.9777747887 ylo yhi
          0.0 29.5151291740 zlo zhi
          7.7645713531 -2.6146722824 -4.6926153368 xy xz yz

Masses

           1 15.9994
           2 1.00794

Atoms

           1       1       1     -0.84760    -7.0247478505100    11.2470804980000    -7.9667480992300
           2       1       2      0.42380    -7.6895462432300    11.8587205722000    -7.5378663944100
           3       1       2      0.42380    -7.4693160435500    10.7335540611000    -8.7006756980400
           4       2       1     -0.84760   -12.1064183865000    -2.7715482444900   -13.7719648858000
           5       2       2      0.42380   -12.5470446776000    -3.0126672936000   -14.6366671905000
           6       2       2      0.42380   -12.6980304049000    -3.0375020294800   -13.0108710652000
           7       3       1     -0.84760    -9.0338644020500     0.7920569196650     3.1012652282400
           8       3       2      0.42380    -8.2960006834100     1.4136913529000     3.3641868213700
           9       3       2      0.42380    -8.9711881601600     0.5953104270050     2.1228161972100
          10       4       1     -0.84760     1.3004838421900     8.1046463655100    10.0177693989000
          11       4       2      0.42380     2.0553216858800     8.5146042982800     9.5057593179000
          12       4       2      0.42380     0.5223110431580     8.7326619254400    10.0243687429000
          13       5       1     -0.84760    11.4585642651000    -3.2695478564500    -9.5755818358100
          14       5       2      0.42380    12.2980536146000    -3.6558176925500    -9.1934127033900
          15       5       2      0.42380    10.9481043641000    -3.9862085845800   -10.0507955670000
          16       6       1     -0.84760   -15.8575613961000   -10.9469176080000   -12.2076478481000
          17       6       2      0.42380   -15.3134132440000   -11.2821594982000   -11.4385472932000
          18       6       2      0.42380   -15.8225389276000    -9.9477877952700   -12.2302983220000
          19       7       1     -0.84760     8.2645316423900    -7.4090712616500    -7.5748455191400
          20       7       2      0.42380     8.1040917430800    -6.5047512787900    -7.1792896984100
          21       7       2      0.42380     7.5994774251000    -8.0576041582700    -7.2045645851700
          22       8       1     -0.84760    -4.9166268493500     9.6773295679200    -9.7685917985600
          23       8       2      0.42380    -4.8192400484200     8.6935219763000    -9.9190525365800
          24       8       2      0.42380    -4.4966675251500    10.1738795613000   -10.5282445285000
          25       9       1     -0.84760    11.4961524886000     3.4442453411100    10.1177313481000
          26       9       2      0.42380    11.0836194710000     3.8976562815700     9.3276458916100
          27       9       2      0.42380    10.9928851146000     3.6931757195700    10.9452309656000
          28      10       1     -0.84760    -1.3453110012200    -9.2485392923100    -6.8984043455000
          29      10       2      0.42380    -1.6893093087200    -9.5742050403000    -6.0177188255600
          30      10       2      0.42380    -1.2481951685400   -10.0218804621000    -7.5249120869400
          31      11       1     -0.84760    -4.3127255973000    -4.2381020156600    -2.1295367838800
          32      11       2      0.42380    -4.0727133636700    -5.1146254365400    -1.7122828799500
          33      11       2      0.42380    -5.2128141264500    -4.3089500391900    -2.5594451430100
          34      12       1     -0.84760    12.0458984804000     0.5317678976740    13.8523060785000
          35      12       2      0.42380    11.4274951401000    -0.0153908171395    13.2882186301000
          36      12       2      0.42380    12.6559392311000     1.0601819275900    13.2618580321000
          37      13       1     -0.84760    -2.1074085141100     9.6305485516500     4.9378778107800
          38      13       2      0.42380    -2.6094997621200     9.0878112529600     4.2645720828400
          39      13       2      0.42380    -2.5793956054100    10.4999466013000     5.0840804676600
          40      14       1     -0.84760    -8.5319813998500   -10.3755641785000    -7.0555977053000
          41      14       2      0.42380    -8.0768343330800    -9.9135235052700    -6.2944409777400
          42      14       2      0.42380    -9.5105944758400   -10.4493055585000    -6.8635595414800
          43      15       1     -0.84760     4.5427523557500   -10.0093453257000    -0.7379758258730
          44      15       2      0.42380     4.9165345265200   -10.5938721893000    -1.4581252788400
          45      15       2      0.42380     4.9221896527100   -10.2847134410000     0.1453133333400
          46      16       1     -0.84760     7.8589073025800   -13.7597712771000     0.7782088251650
          47      16       2      0.42380     7.0536673854800   -13.9478428907000     1.3405412393800
          48      16       2      0.42380     7.9788688255900   -14.4951876609000     0.1112965554900
          49      17       1     -0.84760   -13.9730419460000    -2.7043778116800    10.0911453865000
          50      17       2      0.42380   -14.4215902559000    -2.1741058040700    10.8106007441000
          51      17       2      0.42380   -13.0585685678000    -2.3350599944300     9.9257888310600
          52      18       1     -0.84760   -11.3519196519000   -11.2320299157000     2.1524361961400
          53      18       2      0.42380   -11.5636272081000   -10.4126571152000     2.6851726454800
          54      18       2      0.42380   -12.1093698068000   -11.8809989696000     2.2239094780100
          55      19       1     -0.84760    -0.6155194022160     8.3741326923800     1.6713853118500
          56      19       2      0.42380    -1.6015364639500     8.2609847199400     1.5490419822600
          57      19       2      0.42380    -0.2543573772310     8.9584380657300     0.9446465538490
          58      20       1     -0.84760   -12.1195068235000    -1.6786835435600    -3.7488307886200
          59      20       2      0.42380   -11.7636049444000    -1.2174877397000    -2.9360378980500
          60      20       2      0.42380   -12.7292207934000    -1.0592851176800    -4.2433957135400
          61      21       1     -0.84760     9.7932518849300     0.1163550943060    -0.2811005735670
          62      21       2      0.42380     9.1386712280600     0.3626032570710     0.4336623283730
          63      21       2      0.42380     9.9691168539300    -0.8674829024340    -0.2474210716600
          64      22       1     -0.84760    -6.4877793196300   -12.1417958031000     6.2307496460500
          65      22       2      0.42380    -7.0522131023600   -12.2581282797000     7.0479896718600
          66      22       2      0.42380    -5.5664084680100   -12.4865921086000     6.4101688799400
          67      23       1     -0.84760    -1.9337993561200    14.0955678583000    -9.5919068349200
          68      23       2      0.42380    -1.7014486368800    13.2077752613000    -9.9891944484600
          69      23       2      0.42380    -2.0067857551600    14.7775574731000   -10.3196177328000
          70      24       1     -0.84760     1.5522646479500    14.7570795934000    -2.6272836345100
          71      24       2      0.42380     0.5857706582710    14.5141149490000    -2.7100939569200
          72      24       2      0.42380     1.9887381094600    14.6986886474000    -3.5251040034100
          73      25       1     -0.84760    10.0075793879000   -13.0685279716000    14.5564156763000
          74      25       2      0.42380     9.2627459287400   -13.7196194426000    14.7023711987000
          75      25       2      0.42380    10.7112704201000   -13.4898531745000    13.9843107869000
          76      26       1     -0.84760    -8.7893735736300     9.8191841081700    -2.8028887428200
          77      26       2      0.42380    -8.6254071305000    10.7687775422000    -2.5357046945800
          78      26       2      0.42380    -9.6119338770300     9.7696073205800    -3.3694014870700
          79      27       1     -0.84760    12.6474294040000    -1.1442478682000     6.8830446823000
          80      27       2      0.42380    12.4784756644000    -1.5656355406900     7.7740480848500
          81      27       2      0.42380    13.0525173301000    -0.2393577167060     7.0137259197400
          82      28       1     -0.84760     5.5508767095700    -6.8766711911200    -6.3773336842000
          83      28       2      0.42380     5.4208543365200    -7.2139560770900    -5.4449533496700
          84      28       2      0.42380     5.1448428295700    -7.5216368702600    -7.0247560818800
          85      29       1     -0.84760     4.7173180280600    -8.6150642177700    -8.2833727685300
          86      29       2      0.42380     3.7260878315600    -8.5057650784200    -8.3576452108400
          87      29       2      0.42380     4.9931273272800    -9.4664717551500    -8.7295055242900
          88      30       1     -0.84760    -8.8092288287900    -1.6238025667700    -9.3738384593700
          89      30       2      0.42380    -8.7561792389900    -0.6264614709430    -9.3238736758800
          90      30       2      0.42380    -8.0425262089600    -2.0239380388800    -8.8717839835300
          91      31       1     -0.84760   -13.4294300412000    -6.1138856504800     2.6508344889700
          92      31       2      0.42380   -14.1020979273000    -5.5916825801600     2.1265999341700
          93      31       2      0.42380   -12.5806857487000    -6.1849206673200     2.1268238475000
          94      32       1     -0.84760    -4.6432769314500   -10.3165328542000     5.6996571630600
          95      32       2      0.42380    -5.3622617646800   -10.8042354886000     5.2044734093200
          96      32       2      0.42380    -4.8559373416500   -10.3116901587000     6.6767713315400
          97      33       1     -0.84760    -0.1759405035080    -3.5281728300200     8.9634778342500
          98      33       2      0.42380    -0.1605892818290    -3.9412261614900     8.0529003881400
          99      33       2      0.42380    -1.1237619391900    -3.3957108171800     9.2534577322000
         100      34       1     -0.84760    17.1125584386000    13.5278831756000     3.3172959282900
         101      34       2      0.42380    17.2148238996000    12.8350610809000     2.6034756984000
         102      34       2      0.42380     9.8644075552600   -14.6318106991000     3.0642079659600
         103      35       1     -0.84760   -16.3905532349000    -5.7000572693400    13.1697222739000
         104      35       2      0.42380    12.6971141829000    -5.3365910191100    13.3582469262000
         105      35       2      0.42380   -15.8972584214000    -5.0685819971700    12.5714754957000
         106      36       1     -0.84760     1.9298444773300   -10.7112564727000     6.0334655606300
         107      36       2      0.42380     2.2785851413500    -9.8313310611400     5.7108028585000
         108      36       2      0.42380     1.5308424869300   -11.2132847397000     5.2661553034300
         109      37       1     -0.84760    -9.1175937708200    -0.0085264327675    -3.5233010665800
         110      37       2      0.42380    -8.9641637606200     0.3827534725360    -2.6159096032800
         111      37       2      0.42380   -10.0104331484000     0.2839518316240    -3.8657836366000
         112      38       1     -0.84760    -0.3640578395790     0.9843376584810     4.9888080113100
         113      38       2      0.42380    -0.5434908539900     1.0196846610600     5.9719429881800
         114      38       2      0.42380    -1.1357324817200     0.5495967326110     4.5245682305500
         115      39       1     -0.84760     1.5134914965100    -1.2220747660100    10.5135237092000
         116      39       2      0.42380     0.5452167009990    -1.4474156259200    10.6215302702000
         117      39       2      0.42380     1.7910653403900    -0.5892038202190    11.2363149150000
         118      40       1     -0.84760    -6.3491411534100   -11.6943839045000   -11.3935699656000
         119      40       2      0.42380    -6.8883188196300   -10.8795050784000   -11.6063138093000
         120      40       2      0.42380    -6.0104447289100   -11.6341739686000   -10.4546027161000
         121      41       1     -0.84760     8.3348521738100    -4.8672189230200     6.8383599779200
         122      41       2      0.42380     9.0804605140500    -5.4831237944700     6.5839402611500
         123      41       2      0.42380     7.4742835152800    -5.3761552753000     6.8584938618600
         124      42       1     -0.84760    14.9444699650000     1.0577207762900    -1.3407633174900
         125      42       2      0.42380   -14.6766294871000     0.9941089147100    -0.4175147562470
         126      42       2      0.42380   -14.3244768978000     1.2776926658200    -1.9866531520300
         127      43       1     -0.84760     6.5814062205800    13.5399670791000     3.1334351085300
         128      43       2      0.42380     5.7515497371000    13.1077529840000     3.4863220490400
         129      43       2      0.42380    -1.4070201181600   -14.5334091088000     2.7701829696600
         130      44       1     -0.84760    -8.8605756120300    -9.0985721833000     3.8211849380400
         131      44       2      0.42380    -9.8137464663300    -9.3707740324300     3.9529858327300
         132      44       2      0.42380    -8.6161082859700    -9.1971934089700     2.8565556930300
         133      45       1     -0.84760     2.9146111861700    13.5561917987000     1.2551262934900
         134      45       2      0.42380     3.4349523300700    13.2170708451000     0.4713903221550
         135      45       2      0.42380     2.3174186069900    14.3024274804000     0.9610288082930
         136      46       1     -0.84760   -10.9813728428000   -11.8152174436000    10.2196472430000
         137      46       2      0.42380   -10.0155316044000   -12.0115406995000    10.3887858888000
         138      46       2      0.42380   -11.4468261045000   -11.6570609221000    11.0904743073000
         139      47       1     -0.84760    10.3614632080000    13.9842485384000   -13.8069158069000
         140      47       2      0.42380    10.1310032884000    14.8610315762000   -13.3848497812000
         141      47       2      0.42380    11.3198444049000    13.7668961964000   -13.6218119416000
         142      48       1     -0.84760     3.9118432261600    -4.5157135093100     3.0380953587200
         143      48       2      0.42380     4.7707562851800    -4.1139450845800     3.3556650202700
         144      48       2      0.42380     3.7618891027000    -4.2681544864500     2.0808972125400
         145      49       1     -0.84760   -14.4094240595000    -6.5599210222100   -13.1007238892000
         146      49       2      0.42380   -14.2854524224000    -6.8151069968500   -14.0596353301000
         147      49       2      0.42380   -14.7443424598000    -5.6192200069500   -13.0467677494000
         148      50       1     -0.84760     1.8984184283500    -2.9336423488700    -1.5981108244200
         149      50       2      0.42380     1.8267178685100    -3.9308549665500    -1.6187511941600
         150      50       2      0.42380     0.9831565078190    -2.5327634328500    -1.6380070837400
         151      51       1     -0.84760   -10.1578476223000    -2.1547063505400    -0.3960548811840
         152      51       2      0.42380    -9.2935897060700    -1.7016153707400    -0.6146110941040
         153      51       2      0.42380   -10.7867565572000    -2.0631444245900    -1.1681235085000
         154      52       1     -0.84760   -10.5566336514000    -2.8456551210100   -10.6814588512000
         155      52       2      0.42380   -10.1370798220000    -3.5954756310800   -11.1930678689000
         156      52       2      0.42380    -9.9171847145300    -2.5178427630300    -9.9860135873400
         157      53       1     -0.84760   -13.0296648670000    -3.4523167235100    -5.8052860228000
         158      53       2      0.42380   -13.1314327697000    -2.7021452144500    -6.4586511588200
         159      53       2      0.42380   -12.7872368320000    -3.0825510237700    -4.9083456818800
         160      54       1     -0.84760    -3.0778535023700     0.4011452911420   -11.7078982555000
         161      54       2      0.42380    -2.3250825242000     0.5819916174800   -12.3408520142000
         162      54       2      0.42380    -3.9479995844600     0.4745098225940   -12.1952004629000
         163      55       1     -0.84760    -1.6626218967500     7.8427169905800    12.9624263745000
         164      55       2      0.42380    -1.9990369092000     8.3705335253100    12.1825323784000
         165      55       2      0.42380    -1.1006232393700     8.4300217507400    13.5448614591000
         166      56       1     -0.84760    -2.0754785895000     2.5480223979800    10.5317263892000
         167      56       2      0.42380    -2.5360112031800     3.2679137288600    10.0124324614000
         168      56       2      0.42380    -1.4284420342700     2.9611906239300    11.1725350294000
         169      57       1     -0.84760    -3.2378495097500   -15.2232443891000     8.4953759908900
         170      57       2      0.42380    -3.8002104465600   -14.7103214472000     9.1439592411000
         171      57       2      0.42380    -2.2773738079200   -14.9722641679000     8.6157726470000
         172      58       1     -0.84760     5.0375454987400    -9.2718159070000    12.1078695686000
         173      58       2      0.42380     5.1263505345600   -10.2603150813000    12.2302748298000
         174      58       2      0.42380     5.9086838321800    -8.8954111364000    11.7925325224000
         175      59       1     -0.84760     2.6364154614900    -8.5856024439000     4.7290719021800
         176      59       2      0.42380     2.9980646886200    -7.6983566549100     5.0154366109400
         177      59       2      0.42380     2.0237128213800    -8.4597092178300     3.9488499014500
         178      60       1     -0.84760   -10.0750237826000    11.7060280097000    12.3764911412000
         179      60       2      0.42380   -18.1129029564000   -16.4950958332000    12.9440439084000
         180      60       2      0.42380    -9.9124051471000    12.0181117818000    11.4404575421000
         181      61       1     -0.84760    -5.9555469616200    12.2626889724000    12.9499140579000
         182      61       2      0.42380   -14.1967322777000   -16.0751394804000    13.5526642695000
         183      61       2      0.42380    -6.5973049434800    11.9006641693000    12.2738336376000
         184      62       1     -0.84760    -5.8525356327500    -5.6716117077400     0.1708802512250
         185      62       2      0.42380    -6.8299572421700    -5.6007792840400    -0.0281920100338
         186      62       2      0.42380    -5.7027082702000    -5.5515962728400     1.1522813195000
         187      63       1     -0.84760    11.5153295185000    13.7075496624000     0.9012767511090
         188      63       2      0.42380    11.0496666397000    14.1148207800000     1.6869537331300
         189      63       2      0.42380    10.8402810416000    13.4535874955000     0.2085915617110
         190      64       1     -0.84760     8.2117482288800     5.0913094557800   -14.6342970041000
         191      64       2      0.42380     7.9069551335900     4.2289878508400   -14.2299424335000
         192      64       2      0.42380     9.2093325152600     5.1455738433100   -14.5909268782000
         193      65       1     -0.84760   -10.5026774330000    -7.8844304888700    -2.4444584184900
         194      65       2      0.42380   -10.6927937739000    -7.1111632611000    -3.0493663216700
         195      65       2      0.42380   -11.2598260817000    -8.5361784296500    -2.4886233979700
         196      66       1     -0.84760    -2.3448983816300     2.8094548450300     4.3384041746000
         197      66       2      0.42380    -2.6354924480300     3.5848032242500     4.8991090697400
         198      66       2      0.42380    -1.3953893394400     2.9413102581000     4.0537171028400
         199      67       1     -0.84760    -5.9288542808900     1.7343476520300    -6.3977532321700
         200      67       2      0.42380    -5.4099126095300     2.4854948260800    -5.9897367317200
         201      67       2      0.42380    -6.0589808552300     1.9105121591300    -7.3734750885900
         202      68       1     -0.84760    12.1744799749000    -6.6235547458000    -5.0999769846800
         203      68       2      0.42380    11.3235297642000    -6.1013949674500    -5.0431183459400
         204      68       2      0.42380    11.9899120157000    -7.5184253038200    -5.5063528609600
         205      69       1     -0.84760    10.4782661754000    -6.4116188158500     7.3965329698100
         206      69       2      0.42380    11.0423651670000    -7.1992212372200     7.6444739981800
         207      69       2      0.42380    10.8879245175000    -5.5782233902100     7.7675209847700
         208      70       1     -0.84760    14.1620494023000    -2.1242574552600    -7.1806278234900
         209      70       2      0.42380   -15.4166122998000    -3.0276179830400    -7.2607139993700
         210      70       2      0.42380    14.1567017241000    -1.6784273362900    -8.0757294419400
         211      71       1     -0.84760   -10.3177349113000     9.0306553494200     9.2856266542300
         212      71       2      0.42380   -10.7382879848000     9.2687779818800     8.4101652191600
         213      71       2      0.42380   -10.5947279341000     8.1062972014000     9.5479944866600
         214      72       1     -0.84760   -13.7617633430000   -11.5029199450000    -5.2152865391300
         215      72       2      0.42380   -12.9275707813000   -12.0525397418000    -5.2604622965600
         216      72       2      0.42380   -13.5250073932000   -10.5544455753000    -5.0047087858800
         217      73       1     -0.84760    -3.1761843764900    13.3917963925000     6.1066265567100
         218      73       2      0.42380   -10.5639569107000   -14.6712978799000     5.9604000085000
         219      73       2      0.42380    -4.1593116778500    13.4032012982000     5.9240597539900
         220      74       1     -0.84760    -4.9412907723300    10.9373792585000     0.5726888117510
         221      74       2      0.42380    -4.4760223044200    11.1693349860000    -0.2815487390940
         222      74       2      0.42380    -4.9472075416500    11.7347380738000     1.1761653328800
         223      75       1     -0.84760    -3.9003162131400    -5.2938518677700    10.0884089147000
         224      75       2      0.42380    -3.2146353637100    -4.8795739495900    10.6869200501000
         225      75       2      0.42380    -3.5070714359900    -5.4372175382600     9.1802212524600
         226      76       1     -0.84760    10.4338850921000   -14.1007977191000     7.9666393355300
         227      76       2      0.42380     9.5486364478000   -14.4461928102000     8.2781470702800
         228      76       2      0.42380    10.4027186340000   -13.9465486698000     6.9790990160100
         229      77       1     -0.84760     8.7661850290900    12.9148599362000    -4.7771224778600
         230      77       2      0.42380     8.8641259840100    13.8935347360000    -4.5965589000200
         231      77       2      0.42380     8.6922009309700    12.4217609147000    -3.9103008651400
         232      78       1     -0.84760     6.3776701769400    13.0621822777000     0.4274025502760
         233      78       2      0.42380     5.4389247639600    12.8403625558000     0.1636734078340
         234      78       2      0.42380     6.6278598188200    12.5381034082000     1.2414949784900
         235      79       1     -0.84760     7.8341284924300   -15.2506919984000     5.6140380262100
         236      79       2      0.42380    16.0161820373000    13.6722803710000     4.7070069824400
         237      79       2      0.42380     7.0422561582700   -14.6409437072000     5.5801968122400
         238      80       1     -0.84760     2.3181049286700     8.4134937521200     7.5132797811400
         239      80       2      0.42380     2.2624853097200     8.9681233521400     6.6830433902400
         240      80       2      0.42380     1.4539075958500     7.9289826628400     7.6489705115100
         241      81       1     -0.84760     6.4845528209300   -15.7190830082000     8.7609901620500
         242      81       2      0.42380     5.5309177372000   -15.4507719034000     8.6246476589800
         243      81       2      0.42380    14.5956270120000    12.8252423556000     7.9290903007000
         244      82       1     -0.84760     2.3834464448700    -5.3977470654200    -9.5225765298500
         245      82       2      0.42380     2.4289849296800    -4.7709469451400   -10.3004247513000
         246      82       2      0.42380     2.6432572164500    -4.9123919554400    -8.6877539258300
         247      83       1     -0.84760    -2.0018903297500     2.2223391037900    13.6755668131000
         248      83       2      0.42380    -2.7954357221200     2.7610134655300    13.9586138803000
         249      83       2      0.42380    -1.1929002860200     2.8095393497500    13.6485301663000
         250      84       1     -0.84760    -4.8511497305100    -1.9187428335300     7.7540695256200
         251      84       2      0.42380    -3.8600925264600    -2.0516378912900     7.7660912522300
         252      84       2      0.42380    -5.1682420120700    -1.6920415513000     8.6749707220600
         253      85       1     -0.84760    -0.7495040552010     9.2352239146900    -3.4315728106600
         254      85       2      0.42380    -1.0361101187100    10.1523379828000    -3.7086265067200
         255      85       2      0.42380    -1.5474328114900     8.6336099065400    -3.3945554487700
         256      86       1     -0.84760    -3.7917443798000     7.0405159797800    -0.5408275260750
         257      86       2      0.42380    -4.2934210624300     7.7340141757200    -0.0237387925540
         258      86       2      0.42380    -2.9355023731400     7.4312457063500    -0.8787327003490
         259      87       1     -0.84760    15.6851265705000     8.9889311225600    13.7591073087000
         260      87       2      0.42380    14.7802212458000     8.5653747241400    13.8008964302000
         261      87       2      0.42380    16.2989438161000     8.4113825027900    13.2209010465000
         262      88       1     -0.84760     7.0226895652200     5.5464837663300     4.9525508978000
         263      88       2      0.42380     7.1484935618300     5.5317186060200     3.9606056652000
         264      88       2      0.42380     6.1307891635500     5.1563493677000     5.1812621229200
         265      89       1     -0.84760    -0.2569708708670     2.0870161574200    -6.4091117186600
         266      89       2      0.42380    -0.8437839302020     2.1259117804900    -5.6003240061500
         267      89       2      0.42380     0.1211522516050     2.9948197994300    -6.5905378794200
         268      90       1     -0.84760    12.0469307577000   -10.3871687361000   -10.0368821393000
         269      90       2      0.42380    12.5767317532000   -10.8588060601000   -10.7417715914000
         270      90       2      0.42380    12.5287296711000    -9.5565671554600    -9.7576495814900
         271      91       1     -0.84760   -11.5613324784000     1.8627090737700    -2.9343526200300
         272      91       2      0.42380   -11.4956340205000     2.1649928844000    -1.9834014065300
         273      91       2      0.42380   -11.4900981597000     2.6541960938200    -3.5413731871700
         274      92       1     -0.84760    -5.4591105229400    -1.8009823234700    -2.0548670956500
         275      92       2      0.42380    -5.3587131098000    -2.0122940763300    -3.0271158819900
         276      92       2      0.42380    -4.9943324541900    -2.5004771453700    -1.5120150523200
         277      93       1     -0.84760     2.0479349924300     6.1459258536300    -5.3515753290400
         278      93       2      0.42380     1.9533580956600     6.4933942990900    -6.2844852335900
         279      93       2      0.42380     1.2534750298800     6.4223285723900    -4.8108028214400
         280      94       1     -0.84760    11.5931953601000    10.8096750957000    10.9164238928000
         281      94       2      0.42380    12.3310617252000    11.4291903512000    11.1842934046000
         282      94       2      0.42380    10.8955133502000    10.7929385728000    11.6326359437000
         283      95       1     -0.84760    11.6637349462000    -6.8564306593700   -10.5771642171000
         284      95       2      0.42380    10.7606458628000    -7.1419375604100   -10.2563591098000
         285      95       2      0.42380    12.3041536268000    -6.8517366047400    -9.8091525770200
         286      96       1     -0.84760    -0.6969736061500    -8.5955398398400     2.4992158500200
         287      96       2      0.42380    -1.3297791423400    -8.6171798546000     1.7252075405500
         288      96       2      0.42380    -0.8735863390420    -7.7807811290600     3.0514623400800
         289      97       1     -0.84760    -7.6288579380000    -6.9971088384100    -4.9842618821500