LAMMPS Atom File

         2250 atoms
         1500 bonds
         750 angles
           0 dihedrals
           0 impropers

           2 atom types
           1 bond types
           1 angle types

         0.0  30.0 xlo xhi
         0.0  30.0 ylo yhi
         0.0  30.0 zlo zhi

Masses

         1   15.9994
         2   1.00794

Atoms

       1    1  1  -0.84760 -11.724582122400   0.774751414011  14.213739543800
       2    1  2   0.42380 -11.360017333500  -0.143320859647  14.369418106900
       3    1  2   0.42380 -12.522437020700   0.920188900093  14.798782703700
       4    2  1  -0.84760 -11.408725136800  -1.737432852230 -14.597228045400
       5    2  2   0.42380 -11.126635153800  -1.317175037510 -13.734784649800
       6    2  2   0.42380 -11.146621004900  -2.702470470240 -14.599182489300
       7    3  1  -0.84760 -10.962674802700  -2.897142051400  12.223490242300
       8    3  2   0.42380 -10.672201245100  -2.437418519750  11.384276689800
       9    3  2   0.42380 -10.157434147200  -3.194573279930  12.736444578500
      10    4  1  -0.84760 -13.999190438000   2.971914009940 -11.200407304400
      11    4  2   0.42380 -13.265796981200   2.618300448240 -11.781003107400
      12    4  2   0.42380 -13.646899920100   3.130839898560 -10.278109113500
      13    5  1  -0.84760  11.590186027000   1.976711825940  12.844766293100
      14    5  2   0.42380  10.666198834400   1.607908426580  12.945918260300
      15    5  2   0.42380  12.254917582300   1.304483577240  13.170712824100
      16    6  1  -0.84760  10.975558238100   9.605002992520 -13.303986432000
      17    6  2   0.42380  10.839924924200   8.693493892710 -12.915714922400
      18    6  2   0.42380  10.750303900100  10.296541540500 -12.617666594100
      19    7  1  -0.84760  11.152125454000   3.459220244100  10.307270247100
      20    7  2   0.42380  11.443931214600   4.351207330720  10.652535993100
      21    7  2   0.42380  11.085530762800   2.813046244320  11.067549346600
      22    8  1  -0.84760  14.621899474300  -5.852765457930   8.627616034050
      23    8  2   0.42380 -14.726627377000  -5.808772576000   9.385011150830
      24    8  2   0.42380  13.701042776400  -6.001037172320   8.988224465290
      25    9  1  -0.84760  -7.115587168320 -13.858542697100   9.873777183850
      26    9  2   0.42380  -6.563550342130 -14.683419030900   9.751980728850
      27    9  2   0.42380  -7.922380647940 -14.075543203800  10.423317957000
      28   10  1  -0.84760  -2.794931120500 -14.717912737300  12.922601871900
      29   10  2   0.42380  -2.713823382130 -13.885926422700  13.471437281800
      30   10  2   0.42380  -3.116176763350  14.531700063700  13.500287156900
      31   11  1  -0.84760 -11.878975751900   1.465507010160 -12.446222425800
      32   11  2   0.42380 -11.813044533800   0.514450495379 -12.144320819000
      33   11  2   0.42380 -11.205113477100   1.634353213530 -13.165528059200
      34   12  1  -0.84760 -13.419933232300  -3.211779323410   5.573166002850
      35   12  2   0.42380 -13.666057335100  -3.636080069500   4.701735108910
      36   12  2   0.42380 -14.177494640700  -3.311648135410   6.218245015810
      37   13  1  -0.84760  -9.074819033390 -14.601374781900  12.253237355300
      38   13  2   0.42380  -9.637829223000  14.658869610000  11.884752394200
      39   13  2   0.42380  -8.708069549440 -14.873124354700  13.142982816500
      40   14  1  -0.84760   2.516246647290 -10.814774097100  13.084190635700
      41   14  2   0.42380   3.204575396580 -10.778644400900  13.808689205700
      42   14  2   0.42380   2.904915315240 -10.452967703100  12.236822475000
      43   15  1  -0.84760 -13.519591535200  -8.621753596770   7.788044510240
      44   15  2   0.42380 -12.636029997500  -8.266952444980   7.482372869710
      45   15  2   0.42380 -13.741209290700  -8.237254547340   8.684172877950
      46   16  1  -0.84760  13.150955753200  13.255759077700  -9.692141508010
      47   16  2   0.42380  12.355188701200  13.048074600700 -10.261019312900
      48   16  2   0.42380  12.851163399800  13.452182437500  -8.758577151080
      49   17  1  -0.84760   5.500320618960 -13.256347585900   8.463549513950
      50   17  2   0.42380   5.950179359030 -13.935543607900   9.043480438800
      51   17  2   0.42380   6.118077596090 -12.484389164900   8.313694538870
      52   18  1  -0.84760   2.848711608510  -9.342831073860   6.495277700530
      53   18  2   0.42380   3.690506922320  -9.851746654440   6.315317756400
      54   18  2   0.42380   2.369031771270  -9.176657851730   5.633713011140
      55   19  1  -0.84760   4.556654403130 -13.996180204100   6.118196027840
      56   19  2   0.42380   5.005625422480 -14.842110565400   5.830399489320
      57   19  2   0.42380   4.921012750770 -13.710309628900   7.004492258640
      58   20  1  -0.84760  13.670489141200   5.511199359530  14.465832072600
      59   20  2   0.42380  13.475933970100   6.139197794090 -14.780665272100
      60   20  2   0.42380  14.256959914800   4.770066968400  14.792596223700
      61   21  1  -0.84760 -12.882251608000   7.584834514330  11.979856238300
      62   21  2   0.42380 -13.086931479900   8.398523169020  11.435781865400
      63   21  2   0.42380 -13.727876561300   7.227813130600  12.376661190200
      64   22  1  -0.84760  -8.521762988230   4.167501777060  -2.178568164900
      65   22  2   0.42380  -8.673929834240   4.555868301260  -1.269713559450
      66   22  2   0.42380  -8.109499486270   4.858989075040  -2.771766379400
      67   23  1  -0.84760  11.423210429800   7.987459916670  14.429400554900
      68   23  2   0.42380  10.903446974200   8.702463035850  13.961836131700
      69   23  2   0.42380  11.839838133000   8.364952140320 -14.743604295200
      70   24  1  -0.84760  14.426694047300  -3.328966734910   7.167449232300
      71   24  2   0.42380  14.594248270200  -4.291527614210   7.380527002250
      72   24  2   0.42380  13.662694058900  -2.993653417420   7.718692369990
      73   25  1  -0.84760  -2.656208398180  12.358561419600   8.431717758860
      74   25  2   0.42380  -2.614839470950  13.167437894500   9.018239250560
      75   25  2   0.42380  -3.260154291290  12.540114786300   7.655645769130
      76   26  1  -0.84760   2.362802733590 -14.387064017300   9.311246010710
      77   26  2   0.42380   2.577785119410 -14.866542655600   8.460432982350
      78   26  2   0.42380   1.539431337540 -13.834157473100   9.183363652480
      79   27  1  -0.84760 -13.337431163700  -5.343807259130  10.669912020800
      80   27  2   0.42380 -12.929350564000  -4.477786525100  10.380985884300
      81   27  2   0.42380 -12.715313820600  -6.095208367510  10.449988430100
      82   28  1  -0.84760 -11.917093691300  -3.018098960170   8.031061463520
      83   28  2   0.42380 -12.467145454800  -2.296491293380   8.451448704910
      84   28  2   0.42380 -12.245979665800  -3.189695594140   7.102412654230
      85   29  1  -0.84760 -14.261426364600  12.499076249700  12.616886347300
      86   29  2   0.42380 -14.592452566400  13.368518269400  12.983618167800
      87   29  2   0.42380 -13.278370411900  12.420200112500  12.782354014100
      88   30  1  -0.84760   9.793408729350   5.657462171010  14.668959569500
      89   30  2   0.42380   8.807392045760   5.653017232440  14.502372228500
      90   30  2   0.42380  10.159565322900   6.568261182980  14.478238546100
      91   31  1  -0.84760   9.263351607320  -6.396899544050  11.917957276100
      92   31  2   0.42380   9.522613802940  -7.221246128180  12.421182695900
      93   31  2   0.42380   8.496355729490  -6.604433264610  11.310794136400
      94   32  1  -0.84760  14.678126430400  13.009207935400 -11.727599853600
      95   32  2   0.42380  14.060784345100  13.010384247900 -10.940905906800
      96   32  2   0.42380  14.696293972300  12.096436801400 -12.135667001700
      97   33  1  -0.84760   2.547073844590 -11.781238804800   7.389754775510
      98   33  2   0.42380   3.460355784740 -11.960714732200   7.024098530830
      99   33  2   0.42380   2.455067613310 -10.806453112200   7.593046946810
     100   34  1  -0.84760 -11.945479002100   4.977504618510  14.171328543500
     101   34  2   0.42380 -12.730098893700   5.494625654120  13.829338104800
     102   34  2   0.42380 -11.722869252700   4.245142754850  13.527829514700
     103   35  1  -0.84760 -10.149896051600   3.306696772610 -10.652193880800
     104   35  2   0.42380 -10.481275149700   3.169058600060  -9.718789559630
     105   35  2   0.42380 -10.691392521200   2.751409396110 -11.283412941700
     106   36  1  -0.84760  12.111219907400  -6.614161399750   9.628656658080
     107   36  2   0.42380  12.291672987400  -6.590022961080  10.611944012700
     108   36  2   0.42380  11.590520008700  -5.802055862930   9.365300981270
     109   37  1  -0.84760  12.004757740500   1.742550855700   8.361895992550
     110   37  2   0.42380  11.958678282300   2.330681395230   9.169348252450
     111   37  2   0.42380  11.086028260700   1.618566884930   7.986977177400
     112   38  1  -0.84760   7.026321921560  -8.226507154120  10.356925527200
     113   38  2   0.42380   7.833282110320  -8.689935539480   9.990797973750
     114   38  2   0.42380   6.228228161820  -8.457240657710   9.800321178500
     115   39  1  -0.84760 -14.432345264400  12.977775392400  -6.551943199150
     116   39  2   0.42380 -14.833295166200  12.513851477400  -5.761997772300
     117   39  2   0.42380 -13.472370526100  13.185842222000  -6.364442009100
     118   40  1  -0.84760   8.348597438450  -8.801636716970  -1.293972358020
     119   40  2   0.42380   9.258007170860  -8.916815774720  -1.693606845080
     120   40  2   0.42380   7.998149640350  -9.691223429380  -1.001018740690
     121   41  1  -0.84760   3.816317353960  -8.327187061160  -1.042010231960
     122   41  2   0.42380   3.219653255590  -7.587140195800  -0.731651422194
     123   41  2   0.42380   4.456215640480  -7.975186146570  -1.725110180020
     124   42  1  -0.84760  -7.148163166170  -8.694479212180   9.938992022450
     125   42  2   0.42380  -7.392354893790  -9.655081967220   9.806278996820
     126   42  2   0.42380  -6.210838012810  -8.542452297250   9.625448765450
     127   43  1  -0.84760 -12.831796555600  14.049015684600 -10.426456116700
     128   43  2   0.42380 -13.168671316000  14.691987530900  -9.738631574640
     129   43  2   0.42380 -13.462465046400  13.276224854100 -10.497530633900
     130   44  1  -0.84760  -9.357356313160   9.215858052900  -4.165727032810
     131   44  2   0.42380  -9.215706858690   8.460425073440  -4.805458574620
     132   44  2   0.42380  -8.573239244130   9.281494596640  -3.548594740530
     133   45  1  -0.84760  10.289344347800  -5.850926884600   1.163933902020
     134   45  2   0.42380  10.699153460600  -5.032740435790   0.760662993068
     135   45  2   0.42380   9.311295011420  -5.870668928390   0.956497773753
     136   46  1  -0.84760  13.516733547600  -9.846920788280   2.051546809910
     137   46  2   0.42380  14.142100081000 -10.618662652100   1.936086017250
     138   46  2   0.42380  14.029240546100  -9.046073361800   2.361353162340
     139   47  1  -0.84760  -0.618054791137   3.829496877500  -7.089987625200
     140   47  2   0.42380  -0.440946696310   4.600831328310  -7.701277971710
     141   47  2   0.42380   0.208188975490   3.623013965940  -6.565882630620
     142   48  1  -0.84760  10.843524983000  -4.217430139590  10.784485613400
     143   48  2   0.42380  10.964977796800  -3.382983977310  11.322025208500
     144   48  2   0.42380  10.309588141900  -4.878637532380  11.311473500700
     145   49  1  -0.84760  -2.257905626960   4.055536088720   0.052578870075
     146   49  2   0.42380  -2.975256566500   3.543992409060  -0.420422919918
     147   49  2   0.42380  -2.099567824940   3.651869965380   0.953679753058
     148   50  1  -0.84760  -5.582810980050 -13.594283745900  14.682338891100
     149   50  2   0.42380  -5.899314115700 -13.163824527900  13.837039756600
     150   50  2   0.42380  -4.853978791980 -13.040912746900 -14.914443823700
     151   51  1  -0.84760  -6.329066566540 -10.323409702800   6.514875765270
     152   51  2   0.42380  -6.653919347780 -11.128112957200   6.017961946960
     153   51  2   0.42380  -5.522947800460  -9.950766859980   6.055191257520
     154   52  1  -0.84760 -12.249838055200  -9.814552903750   0.250661893890
     155   52  2   0.42380 -11.746256151500 -10.223201877700  -0.510528806492
     156   52  2   0.42380 -12.266462928600 -10.452888167200   1.020240807990
     157   53  1  -0.84760  -9.783131478620   8.339858834580  11.357300160600
     158   53  2   0.42380 -10.748702638700   8.081796248300  11.390103153800
     159   53  2   0.42380  -9.267346002000   7.784506814450  12.009641693700
     160   54  1  -0.84760  -6.523214548860  -1.111264755590  -2.383574795100
     161   54  2   0.42380  -6.823248981380  -0.161237960647  -2.297386465310
     162   54  2   0.42380  -7.261288021120  -1.659529613660  -2.776834499310
     163   55  1  -0.84760 -11.660079255700   2.454919160190   2.173017207400
     164   55  2   0.42380 -11.169358319900   1.946362109520   2.880521758150
     165   55  2   0.42380 -11.993596450400   1.819562313590   1.476534646010
     166   56  1  -0.84760 -11.531780599300 -11.430530119600  -1.979994856960
     167   56  2   0.42380 -12.288076016700 -12.084093047400  -1.950452664880
     168   56  2   0.42380 -11.419081946700 -11.093195797500  -2.914609520240
     169   57  1  -0.84760   7.716019202420   8.774670283700 -10.130624919200
     170   57  2   0.42380   6.841574303440   8.940570522070  -9.674748587770
     171   57  2   0.42380   8.145890968350   9.649124438400 -10.355436387300
     172   58  1  -0.84760 -13.490032227600  13.584724265700  -3.046578852040
     173   58  2   0.42380 -13.137865242700  12.652619093200  -2.961971747650
     174   58  2   0.42380 -12.841685260100  14.224706847700  -2.634185224020
     175   59  1  -0.84760   9.731615150410  -8.325964304940   9.299644358200
     176   59  2   0.42380  10.019158118200  -7.450709567130   9.688550755170
     177   59  2   0.42380  10.444366032900  -8.669120102560   8.687900720640
     178   60  1  -0.84760   2.977663294730  -5.680562392740  -0.437440420184
     179   60  2   0.42380   2.299133439910  -4.964030809520  -0.275638917219
     180   60  2   0.42380   3.738240253000  -5.569964248160   0.202317925568
     181   61  1  -0.84760  -8.821719639400  -8.377568017270   7.344093527290
     182   61  2   0.42380  -8.422027672840  -8.740480737170   8.185842117790
     183   61  2   0.42380  -8.217213252640  -8.580223431530   6.573702190730
     184   62  1  -0.84760  -2.848277910200   0.733143327440   3.488559462840
     185   62  2   0.42380  -1.867683950410   0.777706839374   3.679477192290
     186   62  2   0.42380  -3.319001115250   0.305491300214   4.260267573350
     187   63  1  -0.84760  -0.590358616950   1.223161069790  -9.365496014350
     188   63  2   0.42380  -1.576856017560   1.383873469290  -9.397030174230
     189   63  2   0.42380  -0.290909411103   1.174255024990  -8.412638012390
     190   64  1  -0.84760  -0.007078147308   1.177932794730   4.175266143820
     191   64  2   0.42380   0.591055978721   1.479474551690   3.432764873730
     192   64  2   0.42380   0.438884996320   1.350528102980   5.053518803420
     193   65  1  -0.84760  13.721789194900   7.089082046210 -12.604085268600
     194   65  2   0.42380  14.090400790000   6.753635162080 -11.737136089100
     195   65  2   0.42380  12.747861231800   7.289106772580 -12.497059890700
     196   66  1  -0.84760 -14.942694830300  -9.058287024940  -3.371317973160
     197   66  2   0.42380 -14.671990304500  -9.116889566350  -4.332195073460
     198   66  2   0.42380 -14.505398286300  -8.263935197070  -2.949681985450
     199   67  1  -0.84760  -8.151395638130   2.470732614880   5.957924075780
     200   67  2   0.42380  -8.333617069970   2.263228500960   4.996811495230
     201   67  2   0.42380  -7.728772212220   1.677281686250   6.395902458510
     202   68  1  -0.84760  11.196936946000  -9.008755815710  -2.058844606230
     203   68  2   0.42380  11.045553739100  -9.985067902680  -1.904255364990
     204   68  2   0.42380  11.827206720500  -8.655605228260  -1.367436858280
     205   69  1  -0.84760  -7.330873044700  -1.820301347540   4.184977812060
     206   69  2   0.42380  -6.757456739240  -2.580659726330   4.490016951250
     207   69  2   0.42380  -8.262167329570  -1.947296142130   4.526391457230
     208   70  1  -0.84760  -8.640780937620   0.668783416139   3.200826573060
     209   70  2   0.42380  -7.878753596400   0.025393893111   3.127585512940
     210   70  2   0.42380  -9.489712110990   0.163671257230   3.356317954810
     211   71  1  -0.84760   9.145250782530  -4.943699443350  14.584158009200
     212   71  2   0.42380   8.892755420170  -5.798165816850 -14.961822928900
     213   71  2   0.42380   9.265043033370  -5.109158791540  13.605243804200
     214   72  1  -0.84760  -9.452522555790  10.975208174300  10.557069063900
     215   72  2   0.42380  -9.700220171070  10.012447602500  10.665410989200
     216   72  2   0.42380  -9.360253028920  11.188216342500   9.584385222870
     217   73  1  -0.84760  -5.021411734090  -7.079050859450   0.887990770852
     218   73  2   0.42380  -4.337459782730  -6.456435365360   1.268200811170
     219   73  2   0.42380  -5.814772679850  -6.554370441150   0.579301819954
     220   74  1  -0.84760  12.779529099900 -13.922496190500 -12.211408206700
     221   74  2   0.42380  12.170958956700 -14.106805815800 -11.439610083600
     222   74  2   0.42380  13.047761579100 -14.786232688500 -12.638035209000
     223   75  1  -0.84760  14.696205346800  -5.632190887940  -0.618960087019
     224   75  2   0.42380 -14.741502090700  -5.398668179040   0.174320581240
     225   75  2   0.42380  14.543248142300  -6.620202569220  -0.639864901079
     226   76  1  -0.84760  -6.103586342090  -3.723644503160  -0.973872196758
     227   76  2   0.42380  -5.761016320190  -4.059984882720  -0.096648776429
     228   76  2   0.42380  -6.025970380230  -2.727059190560  -1.002040923730
     229   77  1  -0.84760   7.907826931760  -2.356478341530  14.167221411700
     230   77  2   0.42380   8.608220489480  -3.061694536460  14.277307662900
     231   77  2   0.42380   7.706637756180  -1.944893986150 -14.943890949700
     232   78  1  -0.84760  10.136655623400  -0.365337494786 -13.403638300600
     233   78  2   0.42380  10.251542613500   0.564802025738 -13.054866954500
     234   78  2   0.42380  10.835999071900  -0.551270814444 -14.093817655300
     235   79  1  -0.84760 -11.458305503700   9.725066693330 -13.302772488300
     236   79  2   0.42380 -12.333933841000   9.716556860430 -13.785683036700
     237   79  2   0.42380 -11.621446518600   9.704597694630 -12.316382084200
     238   80  1  -0.84760  -4.771737742010  -8.538275231600   4.292930665100
     239   80  2   0.42380  -5.163586545400  -8.176024869790   3.447218426420
     240   80  2   0.42380  -4.584518647890  -9.514335137360   4.182223523640
     241   81  1  -0.84760  13.873195309300   7.138426243600  -9.447855939970
     242   81  2   0.42380  13.056636118800   7.515252441550  -9.010553864820
     243   81  2   0.42380  14.266434491900   6.428288140110  -8.863846677000
     244   82  1  -0.84760   4.433258842600 -11.336089991300   5.646698798500
     245   82  2   0.42380   4.739390091040 -10.953996698000   4.774753631670
     246   82  2   0.42380   4.449161520710 -12.334724469000   5.596936515570
     247   83  1  -0.84760  -5.855106489120  -9.543777828210   1.699607940140
     248   83  2   0.42380  -5.395580814390  -8.697766494310   1.429236016350
     249   83  2   0.42380  -5.326647968130 -10.328404219700   1.375427408110
     250   84  1  -0.84760  11.456431471200  13.127194069200 -12.792098026100
     251   84  2   0.42380  11.573288960900  12.761238940800 -11.868831449700
     252   84  2   0.42380  11.912063384900  12.526381329000 -13.448926474400
     253   85  1  -0.84760  -2.190427917370  -3.836491853440  -8.557513814250
     254   85  2   0.42380  -1.396173154800  -4.350339230020  -8.233291289250
     255   85  2   0.42380  -1.926957678040  -3.275961115890  -9.342618090920
     256   86  1  -0.84760   9.334591257830  -9.702657860580   3.838165275760
     257   86  2   0.42380   9.383932896530 -10.256900830200   3.007274107600
     258   86  2   0.42380  10.001206571400 -10.039095172500   4.503322369160
     259   87  1  -0.84760  -0.715376346282  -5.339223266970 -11.721875929000
     260   87  2   0.42380  -1.114644280300  -5.783697196510 -10.919985635500
     261   87  2   0.42380  -0.020078127800  -5.936134221640 -12.122197923900
     262   88  1  -0.84760   3.486734718720   1.960487648670 -10.125055984400
     263   88  2   0.42380   3.061772131690   2.215490644330  -9.256505311270
     264   88  2   0.42380   4.316885701590   1.431986152590  -9.947473569000
     265   89  1  -0.84760  13.737294372500  14.610617303700  11.975642653600
     266   89  2   0.42380  13.898669614400 -14.775901771800  11.202597256100
     267   89  2   0.42380  13.586440907900 -14.849507697500  12.803759926700
     268   90  1  -0.84760  11.821888235000  -3.250349005690  -7.202089872820
     269   90  2   0.42380  12.408641287700  -3.947166433900  -6.789577658700
     270   90  2   0.42380  12.320062084400  -2.385009747680  -7.256960486340
     271   91  1  -0.84760   8.171626136450 -12.416607451800   3.972672800850
     272   91  2   0.42380   8.067988202340 -12.843596970100   4.870970707920
     273   91  2   0.42380   8.256936539090 -11.426290754400   4.082194369560
     274   92  1  -0.84760  -4.217227285480  14.840767202200   8.100025799820
     275   92  2   0.42380  -3.745777881500  14.864020394900   7.218439304620
     276   92  2   0.42380  -4.318509887420 -14.227411607100   8.448524154320
     277   93  1  -0.84760   9.525456101630  14.393016350600  -7.355783065170
     278   93  2   0.42380   9.082715581920  13.660702764700  -7.873178121290
     279   93  2   0.42380   8.830508842690  14.932180222200  -6.880019860620
     280   94  1  -0.84760  10.770495711100  10.650761588600  12.533334084000
     281   94  2   0.42380  10.487370609900   9.950692779020  11.877785581600
     282   94  2   0.42380  11.236432010800  11.391547799400  12.049454807300
     283   95  1  -0.84760 -10.657975641500   5.913000799530 -13.229238604900
     284   95  2   0.42380 -10.881205648300   5.092444090830 -12.703068431000
     285   95  2   0.42380 -10.791494688700   5.730858919950 -14.203403375200
     286   96  1  -0.84760  -6.030083307800  -5.439685880580 -10.187573546100
     287   96  2   0.42380  -5.387757259060  -6.034987677780 -10.670308481000
     288   96  2   0.42380  -6.026391296850  -4.533278220490 -10.609961428000
     289   97  1  -0.84760  -3.691469410800  -0.666748818789   1.395307671090
     290   97  2   0.42380  -4.306561363780  -0.217259142776   0.747526133425
     291   97  2   0.42380  -3.424176506160  -0.016994866861   2.106907491970
     292   98  1  -0.84760  13.454245464800 -11.963640975100  -9.655056403380
     293   98  2   0.42380  14.087170083800 -12.569490094800 -10.137086766300
     294   98  2   0.42380  12.647320253000 -11.804015305800 -10.223731484800
     295   99  1  -0.84760   8.503928873220  -5.682968967150   8.273716387600
     296   99  2   0.42380   9.236164619750  -5.386663781280   7.660500236200
     297   99  2   0.42380   8.584457847360  -6.666019924860   8.438415807360
     298  100  1  -0.84760 -11.881031776100 -11.999886500200  11.430802114800
     299  100  2   0.42380 -11.311173405800 -12.699448360800  11.861933928600
     300  100  2   0.42380 -12.844419991700 -12.194624542500  11.615085160300
     301  101  1  -0.84760  -1.484058131070  -6.821730251820  -9.522498431810
     302  101  2   0.42380  -2.095579284130  -7.562144725310  -9.243521216230
     303  101  2   0.42380  -0.856642959993  -6.607660009040  -8.773816834430
     304  102  1  -0.84760  12.488518434800  -7.384754816400   0.581530269436
     305  102  2   0.42380  11.527953733200  -7.106754628200   0.575931220052
     306  102  2   0.42380  12.577155272200  -8.268192238570   1.041619208850
     307  103  1  -0.84760  -3.153791284630 -12.545025785600 -14.975422504100
     308  103  2   0.42380  -2.585563969870 -13.056191447300 -14.330575712200
     309  103  2   0.42380  -2.777930800920 -11.626109024700  14.904907602500
     310  104  1  -0.84760  14.593182553300  -7.450448543900   3.260258385970
     311  104  2   0.42380  13.607308648900  -7.308882183160   3.170750787300
     312  104  2   0.42380  14.820500743600  -7.615002241310   4.220075306560
     313  105  1  -0.84760   1.266146176870   6.443860197420   9.342597836970
     314  105  2   0.42380   1.283454364800   6.240050354060  10.321455321200
     315  105  2   0.42380   0.386561030132   6.855004146020   9.103243239840
     316  106  1  -0.84760   5.672776635420   3.051410057910  -6.505351354630
     317  106  2   0.42380   6.327600793750   3.685751569380  -6.916223802600
     318  106  2   0.42380   6.007017656500   2.114516358010  -6.607884934130
     319  107  1  -0.84760  -2.210881046500  -5.706879020570   7.199539363860
     320  107  2   0.42380  -2.823493158150  -6.491576270010   7.104899903870
     321  107  2   0.42380  -1.708253716560  -5.778419772710   8.061077342120
     322  108  1  -0.84760  11.625239542200  -2.204675267610   6.357935704340
     323  108  2   0.42380  11.885196846100  -1.322887105060   6.751473296630
     324  108  2   0.42380  12.261907353700  -2.443069906050   5.624572155910
     325  109  1  -0.84760   0.012809176039 -11.753076754500   6.602476498210
     326  109  2   0.42380  -0.358244450953 -10.824466705600   6.604083651860
     327  109  2   0.42380   0.918019559989 -11.751046435800   7.027435365160
     328  110  1  -0.84760 -14.879333873800 -11.908962483800  13.046250142600
     329  110  2   0.42380 -14.108972776200 -12.444821110000  13.391792198100
     330  110  2   0.42380  14.265264294200 -12.384907677800  13.250612267800
     331  111  1  -0.84760   2.527531812820   5.900336276050 -11.408120772200
     332  111  2   0.42380   1.600881522460   5.546057751800 -11.282398989600
     333  111  2   0.42380   3.078254020630   5.226086192530 -11.900149099300
     334  112  1  -0.84760  -7.382024788520   1.816816134110  -2.981956027670
     335  112  2   0.42380  -7.769173645440   2.722306051390  -2.808163702490
     336  112  2   0.42380  -7.901103815980   1.366173021380  -3.708232661050
     337  113  1  -0.84760   7.326347581920 -14.036913236600   1.730829312520
     338  113  2   0.42380   7.029808481630 -13.734319456900   2.636644727740
     339  113  2   0.42380   8.268529233200 -14.368095567800   1.781937037340
     340  114  1  -0.84760   7.833807501420 -13.726609261600  -1.712003308590
     341  114  2   0.42380   7.063426935720 -13.747655912400  -1.074766443310
     342  114  2   0.42380   8.642716259630 -14.114230968400  -1.269944451320
     343  115  1  -0.84760 -11.080165136100  11.390182032800  -4.552829252550
     344  115  2   0.42380 -10.356413936400  10.700420665900  -4.573162912110
     345  115  2   0.42380 -11.478254428500  11.482610718300  -5.465507647940
     346  116  1  -0.84760  -4.397244857050  -7.649667844750   7.064714895330
     347  116  2   0.42380  -4.273538898340  -8.612894263850   7.303234708610
     348  116  2   0.42380  -4.747358804760  -7.579902942510   6.130609396990
     349  117  1  -0.84760   1.548245577140 -12.779981089900 -14.010794414300
     350  117  2   0.42380   0.696478308647 -13.272832346900 -14.188530620000
     351  117  2   0.42380   2.056057641400 -12.673041577600 -14.865598981500
     352  118  1  -0.84760  12.963915398300 -10.449977745000  10.116264774800
     353  118  2   0.42380  13.283786686700  -9.669606725920   9.578953476410
     354  118  2   0.42380  13.101849390600 -10.263837736400  11.089057718400
     355  119  1  -0.84760   8.093569797950  12.589817709300  -8.877132190530
     356  119  2   0.42380   7.969958159070  13.340811579000  -9.525767966900
     357  119  2   0.42380   7.249851308030  12.456129036200  -8.357260621350
     358  120  1  -0.84760  -7.676890640300 -11.330423950300   9.003687431250
     359  120  2   0.42380  -7.611831677970 -12.313472646200   9.175100945360
     360  120  2   0.42380  -7.280047038170 -11.120926396800   8.110028698550
     361  121  1  -0.84760  -0.662136702464   8.361442040520   9.352926886640
     362  121  2   0.42380  -1.636722135440   8.393802720220   9.574593348350
     363  121  2   0.42380  -0.461816540913   9.025935429600   8.632982188250
     364  122  1  -0.84760  10.678237594000  11.500237739000 -10.193321426100
     365  122  2   0.42380   9.762597193090  11.623392029200  -9.810652277850
     366  122  2   0.42380  11.181153867500  10.831475871000  -9.645751534870
     367  123  1  -0.84760 -10.942255776100  -5.649150152420  -3.119709426960
     368  123  2   0.42380 -11.940179162200  -5.702708737340  -3.155492013510
     369  123  2   0.42380 -10.650273133800  -5.496989413570  -2.175467272570
     370  124  1  -0.84760  -7.862087596800  -8.447696521440  12.680783948300
     371  124  2   0.42380  -8.747369915110  -7.984797365750  12.725500707500
     372  124  2   0.42380  -7.661950445730  -8.693372104780  11.732317486800
     373  125  1  -0.84760   8.621504075770  -2.348873458020   5.574254019120
     374  125  2   0.42380   9.352754590360  -2.067234238610   6.195504399400
     375  125  2   0.42380   7.756908773580  -1.944042682660   5.871889713810
     376  126  1  -0.84760  -0.632872599547 -10.554612298600 -12.345985939900
     377  126  2   0.42380  -0.307934459523 -10.579857605700 -11.400587674800
     378  126  2   0.42380  -0.033054801340 -11.112445959400 -12.919606211300
     379  127  1  -0.84760  -9.018037588120 -13.475716303300 -13.171941654100
     380  127  2   0.42380  -8.570666044180 -12.849194948100 -12.533717795900