LAMMPS Atom File

         600 atoms
         400 bonds
         200 angles
           0 dihedrals
           0 impropers

           2 atom types
           1 bond types
           1 angle types

         0.0  20.0 xlo xhi
         0.0  20.0 ylo yhi
         0.0  20.0 zlo zhi

Masses

         1   15.9994
         2   1.00794

Atoms

       1    1  1  -0.84760   9.523971168780   0.722988863044  -1.769953962770
       2    1  2   0.42380   8.547697896160   0.925736594384  -1.693902305250
       3    1  2   0.42380   9.987729388000   0.995938854566  -0.927085873307
       4    2  1  -0.84760   8.338432601820  -5.114176254190  -9.164582639970
       5    2  2   0.42380   7.456306411290  -5.168118523060  -8.696668528610
       6    2  2   0.42380   8.499554467530  -5.961375671220  -9.670836422340
       7    3  1  -0.84760   6.595802407310  -0.642079768618  -5.703543258550
       8    3  2   0.42380   6.108832562270   0.154884759069  -6.060905695910
       9    3  2   0.42380   6.096836062830  -1.014254770370  -4.920907739840
      10    4  1  -0.84760  -9.570403377220   0.004120927573  -4.389303814670
      11    4  2   0.42380  -8.573890962400  -0.006705449839  -4.472043144270
      12    4  2   0.42380  -9.824410679760   0.237081611943  -3.450576159920
      13    5  1  -0.84760  -5.548122493690   6.020640235340   4.303695544540
      14    5  2   0.42380  -6.158503091030   5.539972487190   3.674097226340
      15    5  2   0.42380  -4.685016904760   5.521073697920   4.377736188990
      16    6  1  -0.84760  -7.260808847340  -2.935721818000  -8.093406189690
      17    6  2   0.42380  -8.243944751390  -3.109072143930  -8.035152789240
      18    6  2   0.42380  -6.767412759940  -3.805353317240  -8.076046567320
      19    7  1  -0.84760  -5.964292462310   3.105576095890   1.403035211250
      20    7  2   0.42380  -5.628092525610   2.181134766270   1.582973619170
      21    7  2   0.42380  -6.374803037110   3.139472387710   0.491809602868
      22    8  1  -0.84760   4.366156960410   0.819731600570   9.040431303380
      23    8  2   0.42380   3.901865416970   1.220669979480   9.830166562190
      24    8  2   0.42380   3.721889307390   0.740705213230   8.279725038530
      25    9  1  -0.84760   5.503354277280   1.892130149130  -6.586119923460
      26    9  2   0.42380   5.570913522290   2.587390302010  -5.870543884020
      27    9  2   0.42380   6.158757458550   2.097186813780  -7.313030120300
      28   10  1  -0.84760   7.473115743580  -2.915225581610   9.233466199600
      29   10  2   0.42380   7.510708612270  -2.368317919590  -9.930185317150
      30   10  2   0.42380   7.926605642300  -3.792902666630   9.388481831710
      31   11  1  -0.84760  -7.708475642290   4.442745733560   2.907651099910
      32   11  2   0.42380  -7.008721211740   3.956374019660   2.384405179870
      33   11  2   0.42380  -8.615086287760   4.170803145460   2.584999017490
      34   12  1  -0.84760   7.299898173880  -7.579965201710   9.853765739870
      35   12  2   0.42380   6.641765191890  -7.367857657960   9.131359089910
      36   12  2   0.42380   7.804077544720  -8.409143137180   9.612379921430
      37   13  1  -0.84760  -8.174780866590   6.659343039420   0.909065653149
      38   13  2   0.42380  -7.945986749620   7.603697973140   1.145385375560
      39   13  2   0.42380  -7.937307303460   6.057956481760   1.671915910460
      40   14  1  -0.84760   9.097076874970   5.796689769790   0.757331938523
      41   14  2   0.42380  -9.974681136910   6.141257894380   0.617190513528
      42   14  2   0.42380   9.138314178690   4.878589042740   1.151528006200
      43   15  1  -0.84760   9.859699766830   3.953522630990  -8.403500956330
      44   15  2   0.42380   9.651279107440   4.484219974350  -7.581965102890
      45   15  2   0.42380  -9.274797711580   3.468953420710  -8.276622803880
      46   16  1  -0.84760   9.707559422430   3.482952732720   1.826457866470
      47   16  2   0.42380  -9.871979078230   2.860623090940   1.166217043340
      48   16  2   0.42380   8.965644290390   3.011494619000   2.303206420580
      49   17  1  -0.84760  -9.116889322280  -7.444299413950   8.822114753050
      50   17  2   0.42380  -8.514173037410  -7.123966503690   9.552949827860
      51   17  2   0.42380  -9.770512061470  -8.103451567270   9.193996123350
      52   18  1  -0.84760   8.250200853020  -0.867942460796  -9.150082587000
      53   18  2   0.42380   8.217412034400  -0.063739458699  -8.556632989490
      54   18  2   0.42380   8.644094686900  -1.637382198900  -8.647280302750
      55   19  1  -0.84760   8.994693990930  -9.569735434100   9.154862106230
      56   19  2   0.42380   8.965546648560   9.946180900530   8.280325979280
      57   19  2   0.42380   9.655913057580   9.986395946080   9.759651320960
      58   20  1  -0.84760  -9.797225381940  -2.582102149870  -4.775891590520
      59   20  2   0.42380  -9.955548003430  -1.596557859700  -4.715589023090
      60   20  2   0.42380  -9.526505938990  -2.931695591540  -3.878954910070
      61   21  1  -0.84760   4.718700053700  -1.946156019710   8.655652128250
      62   21  2   0.42380   5.651108764840  -2.292343194830   8.759423199140
      63   21  2   0.42380   4.679128989220  -0.996637785164   8.966858254680
      64   22  1  -0.84760   3.416578401100   1.273952902080  -8.423375543620
      65   22  2   0.42380   2.535354214770   1.248953244740  -7.951338521170
      66   22  2   0.42380   4.141265564030   1.479644778490  -7.765713496780
      67   23  1  -0.84760  -9.029928816320   1.332863928150   0.409047504893
      68   23  2   0.42380  -8.547909576870   0.469512463385   0.558318068264
      69   23  2   0.42380  -8.473355026900   1.929762178610  -0.168826266385
      70   24  1  -0.84760   6.551246993380  -7.457401556100  -6.975664796420
      71   24  2   0.42380   7.026697219270  -7.856620525540  -7.759610774880
      72   24  2   0.42380   6.467022120080  -6.469348870990  -7.104730911880
      73   25  1  -0.84760  -8.510692208880  -1.253129604650   2.228091099070
      74   25  2   0.42380  -7.992533459430  -1.806901082190   2.879895257560
      75   25  2   0.42380  -9.022585113770  -0.549740421133   2.721253658920
      76   26  1  -0.84760  -9.990859065730   5.102582062990   8.936262541530
      77   26  2   0.42380  -9.076694120410   5.456595535320   8.738836823470
      78   26  2   0.42380   9.894334300920   5.009048884910   9.925237253810
      79   27  1  -0.84760   5.738622857560  -7.007825824820   7.439256317000
      80   27  2   0.42380   5.888167607280  -7.415872116140   6.538626208700
      81   27  2   0.42380   5.758027399030  -6.011083334900   7.360975587880
      82   28  1  -0.84760   8.950629444310   3.026075482550   7.336585902430
      83   28  2   0.42380   8.405733632040   2.340564726360   7.819456026720
      84   28  2   0.42380   9.231336935760   3.740582367880   7.977431605430
      85   29  1  -0.84760  -9.172584189250  -3.342813958270  -2.086587582670
      86   29  2   0.42380  -9.824543289030  -3.842523380380  -1.516289567880
      87   29  2   0.42380  -8.761332743120  -2.603634243610  -1.553215669750
      88   30  1  -0.84760   3.334364183420  -2.770962568950   6.379803236240
      89   30  2   0.42380   3.550686164160  -2.246013398010   7.202988008070
      90   30  2   0.42380   3.809946675250  -3.650096276480   6.410547629940
      91   31  1  -0.84760   1.076387662520  -2.320742929310   4.395861821480
      92   31  2   0.42380   1.788310654320  -2.577750503760   5.049400466420
      93   31  2   0.42380   1.345013331890  -1.481376838730   3.923310431960
      94   32  1  -0.84760   5.705573513550  -2.838495251260   1.655081875980
      95   32  2   0.42380   6.346916427900  -3.576238474380   1.444335101510
      96   32  2   0.42380   5.105663462580  -2.683967301320   0.870079300553
      97   33  1  -0.84760   8.826348839200   4.298946883760  -5.990990146700
      98   33  2   0.42380   7.898584575990   4.664344832230  -6.066738487700
      99   33  2   0.42380   8.788571752300   3.363927057080  -5.638412757440
     100   34  1  -0.84760   8.029277883390  -2.674365544760  -6.380762658480
     101   34  2   0.42380   8.725327396520  -2.712569627980  -5.663786003840
     102   34  2   0.42380   7.392209568150  -1.928201091120  -6.187416932260
     103   35  1  -0.84760  -2.820392397950  -3.852489964290  -8.161986117760
     104   35  2   0.42380  -2.851562589050  -3.406850768110  -9.056655959660
     105   35  2   0.42380  -3.517601951040  -3.453510318180  -7.566407339530
     106   36  1  -0.84760  -5.864255079840  -1.003011729080  -6.668326036470
     107   36  2   0.42380  -5.269405224600  -0.433146902450  -7.235254364480
     108   36  2   0.42380  -6.426082758760  -1.585670547390  -7.255572458870
     109   37  1  -0.84760  -0.506271378083  -2.963795069590  -6.998755860740
     110   37  2   0.42380  -1.367720489020  -3.048605796030  -7.499467923650
     111   37  2   0.42380   0.220344594754  -2.691112611450  -7.629369454820
     112   38  1  -0.84760   9.524533507120   8.975565339710   6.799103423510
     113   38  2   0.42380   9.387555422660   9.254859654530   5.848718401490
     114   38  2   0.42380   9.005759090920   8.139790560710   6.978974554850
     115   39  1  -0.84760  -6.269129973120  -2.681801619440   9.187807716790
     116   39  2   0.42380  -6.789115384260  -3.355684972000   8.662930207890
     117   39  2   0.42380  -6.732360430710  -2.506362420470  -9.943492892960
     118   40  1  -0.84760   3.250922546310  -3.573038651590  -9.607019916390
     119   40  2   0.42380   3.806149573960  -3.087121513810   9.717993059310
     120   40  2   0.42380   2.973025967180  -4.458579925470  -9.979296887960
     121   41  1  -0.84760   0.910954853261   0.302830846256  -7.446961051100
     122   41  2   0.42380   0.858628729019  -0.627766283798  -7.809246792270
     123   41  2   0.42380   0.060146572877   0.523114509649  -6.969886237610
     124   42  1  -0.84760   8.358004865990   6.372210401840   7.189916533880
     125   42  2   0.42380   9.106362377040   6.042675481960   7.765562060420
     126   42  2   0.42380   8.056424973050   5.637441371800   6.582327823760
     127   43  1  -0.84760   2.885941024960  -1.095288579990  -5.870829512530
     128   43  2   0.42380   3.310468806360  -0.287245243551  -6.279292643370
     129   43  2   0.42380   1.976732342130  -0.857388545139  -5.529152553280
     130   44  1  -0.84760  -2.972033883100  -5.430541681470   2.866295526200
     131   44  2   0.42380  -3.952603763260  -5.333251576130   3.036640310440
     132   44  2   0.42380  -2.623454373300  -6.222089154960   3.368236680680
     133   45  1  -0.84760   1.029969335480  -4.098408567870  -3.705674134090
     134   45  2   0.42380   1.730196809610  -4.651534330790  -4.157042470230
     135   45  2   0.42380   0.127300387344  -4.486061285650  -3.892527393250
     136   46  1  -0.84760   1.187350329880  -2.078940851050  -8.818689286520
     137   46  2   0.42380   2.019128445600  -2.530439451540  -9.141635381050
     138   46  2   0.42380   0.798899438090  -1.528005732990  -9.557320723950
     139   47  1  -0.84760  -5.429415170440   7.588111190040   6.403037573130
     140   47  2   0.42380  -6.285591406300   8.032758174580   6.666194013830
     141   47  2   0.42380  -5.621659025540   6.853271248310   5.752612665690
     142   48  1  -0.84760   6.112860392440  -4.679878057570  -7.385683656180
     143   48  2   0.42380   5.187046273770  -4.326325679710  -7.519358387460
     144   48  2   0.42380   6.720721480890  -3.931036510480  -7.121597998680
     145   49  1  -0.84760  -1.256001307300   3.891261437810   1.412174101820
     146   49  2   0.42380  -1.074627875050   3.192340472860   0.720355366290
     147   49  2   0.42380  -0.408711683990   4.378295420500   1.624066041110
     148   50  1  -0.84760   1.552040756080   0.816667723083   4.699198349130
     149   50  2   0.42380   1.191944029150   1.748550554210   4.655326532450
     150   50  2   0.42380   2.432640437800   0.777039884403   4.226997295600
     151   51  1  -0.84760   1.675406933750  -3.453557252470  -1.193509726950
     152   51  2   0.42380   1.449470771120  -4.206078556280  -0.574910876543
     153   51  2   0.42380   1.393998989100  -3.690523868840  -2.123378745370
     154   52  1  -0.84760   1.248846365510   0.340252838442  -3.056335302310
     155   52  2   0.42380   0.741931867449   0.068747353027  -3.874456603250
     156   52  2   0.42380   1.056156348590  -0.303609871577  -2.315854804240
     157   53  1  -0.84760   0.214451185883  -1.548106225330  -4.824420688410
     158   53  2   0.42380  -0.201929853423  -1.832859635190  -5.687868617170
     159   53  2   0.42380   0.909265943210  -2.214404501810  -4.553719636020
     160   54  1  -0.84760   1.140795828750  -0.698104463770  -0.456485708500
     161   54  2   0.42380   1.751360232410  -0.234213811035   0.185399461362
     162   54  2   0.42380   1.451932259040  -1.638774303450  -0.591890193176
     163   55  1  -0.84760  -1.549149552520  -7.968623187260   8.913694971790
     164   55  2   0.42380  -1.984408399760  -7.643555826970   9.753266855060
     165   55  2   0.42380  -0.774106070231  -7.377741064830   8.689717477500
     166   56  1  -0.84760   6.938295803320   4.341822320480  -2.764824679030
     167   56  2   0.42380   6.392862118630   4.465168209680  -1.935796400130
     168   56  2   0.42380   7.557536702990   5.119236396410  -2.875133621150
     169   57  1  -0.84760  -4.989523212280   0.865167548931   2.419922083310
     170   57  2   0.42380  -5.239915192710   0.722114476059   3.377439537180
     171   57  2   0.42380  -3.996016817520   0.950199974644   2.344327571970
     172   58  1  -0.84760  -2.381552386430   0.559436529133   2.261278157590
     173   58  2   0.42380  -1.777331782470   0.531955628629   3.057621212970
     174   58  2   0.42380  -2.184259127780  -0.219595892462   1.666144679960
     175   59  1  -0.84760  -2.644579930620   0.753155209574  -3.810161289760
     176   59  2   0.42380  -2.354763144190  -0.191826955118  -3.658454537380
     177   59  2   0.42380  -3.226742274220   1.048918612870  -3.052790168730
     178   60  1  -0.84760  -1.809087816040  -1.659627589810  -2.942709166450
     179   60  2   0.42380  -1.006316441080  -1.615532821550  -3.537363495430
     180   60  2   0.42380  -2.424711213370  -2.378055087010  -3.266545180400
     181   61  1  -0.84760  -3.407247325160   2.736541636540   5.607112994740
     182   61  2   0.42380  -3.189834174490   1.760481689840   5.613318021970
     183   61  2   0.42380  -3.616936011750   3.025384409920   4.672982111520
     184   62  1  -0.84760   4.268532499210   0.672579504895   0.294077383335
     185   62  2   0.42380   5.266701303500   0.724024071573   0.325897105439
     186   62  2   0.42380   3.944082551450   1.030343913100  -0.581557734520
     187   63  1  -0.84760  -6.845434188510  -0.492543982235  -4.149137712020
     188   63  2   0.42380  -6.621468705640  -0.581375744006  -5.119677963930
     189   63  2   0.42380  -6.637769147480  -1.350500070600  -3.679258385830
     190   64  1  -0.84760  -9.270583721940  -8.028348682110  -4.615221329270
     191   64  2   0.42380  -9.501359675350  -8.897585748600  -5.052450538690
     192   64  2   0.42380  -8.546380542740  -7.575551837550  -5.135322062590
     193   65  1  -0.84760  -7.058059264320   3.050165922080  -0.968997555475
     194   65  2   0.42380  -6.443534723510   2.600017003380  -1.616859840020
     195   65  2   0.42380  -7.478871144140   3.845107372190  -1.406016379670
     196   66  1  -0.84760  -3.618979528290  -3.102023455100   9.166774551060
     197   66  2   0.42380  -3.660733863600  -3.903642971250   8.570399898000
     198   66  2   0.42380  -4.513811628410  -2.656176031650   9.189036347720
     199   67  1  -0.84760   0.971385855450  -5.367788012570   1.043827828290
     200   67  2   0.42380   0.120450772111  -5.590512647720   0.568114447313
     201   67  2   0.42380   0.785614007367  -5.243296943080   2.018502540220
     202   68  1  -0.84760  -3.911638404920   0.136544125339  -8.225796937670
     203   68  2   0.42380  -3.308328865800  -0.389038015740  -8.825614420720
     204   68  2   0.42380  -4.278710091490   0.920591112606  -8.726325357120
     205   69  1  -0.84760  -1.495109067000  -1.231840426840  -0.184118605130
     206   69  2   0.42380  -1.699795623850  -1.428323457000  -1.143023101050
     207   69  2   0.42380  -0.563674473234  -0.875923412479  -0.108272204911
     208   70  1  -0.84760  -1.052773513470  -1.705862444440   6.255314546440
     209   70  2   0.42380  -1.761273099150  -1.033225042860   6.041802806540
     210   70  2   0.42380  -0.471311831244  -1.843459697620   5.453460876480
     211   71  1  -0.84760   7.186574570480  -9.508648471180  -5.160849458810
     212   71  2   0.42380   6.827693101630  -8.860469216620  -5.832465230860
     213   71  2   0.42380   7.794708727240  -9.029983666620  -4.527562120980
     214   72  1  -0.84760   4.452989300890   7.517051915990  -2.302093852410
     215   72  2   0.42380   4.484640347880   7.598242218480  -1.305897914860
     216   72  2   0.42380   5.301373975710   7.101255362330  -2.629747128750
     217   73  1  -0.84760   3.718558561710  -5.766574677610  -0.192905761776
     218   73  2   0.42380   3.885722040950  -4.905338871590  -0.672832066147
     219   73  2   0.42380   2.798364515530  -5.756907792970   0.198437398013
     220   74  1  -0.84760  -6.581133784860  -2.833727373020  -2.771458748700
     221   74  2   0.42380  -5.862562342640  -3.148098928430  -2.151115611730
     222   74  2   0.42380  -7.448981293460  -3.262761320340  -2.520918185410
     223   75  1  -0.84760  -7.506607518560   6.533963535850   8.946350823730
     224   75  2   0.42380  -7.318806343240   7.484926529570   8.700586499350
     225   75  2   0.42380  -7.001508211110   5.925522091610   8.334244870040
     226   76  1  -0.84760   5.039874761640  -2.034386472370  -3.701458721600
     227   76  2   0.42380   5.156471093380  -3.009820059890  -3.514550691380
     228   76  2   0.42380   4.093611105660  -1.857688387380  -3.972314550640
     229   77  1  -0.84760  -3.798480172930   3.844637234230   8.130194555750
     230   77  2   0.42380  -3.779725480160   4.841461248350   8.052798519820
     231   77  2   0.42380  -3.385343453040   3.439177227270   7.314768143720
     232   78  1  -0.84760  -2.998705943210   9.568634098880   5.280603540520
     233   78  2   0.42380  -3.157410123930  -9.708051220870   5.952636914970
     234   78  2   0.42380  -3.742281957070   8.901592175990   5.326969311480
     235   79  1  -0.84760   8.872258580250   9.228354991570  -2.542877308430
     236   79  2   0.42380   9.211319130530  -9.876443078250  -2.253651708880
     237   79  2   0.42380   8.503440272730   8.740161744080  -1.751902966780
     238   80  1  -0.84760  -8.088005335670   7.173104428860  -8.263413069620
     239   80  2   0.42380  -7.596208878610   6.548488105360  -7.656790705010
     240   80  2   0.42380  -7.994311780820   6.862001962950  -9.209159744740
     241   81  1  -0.84760   3.439213508670  -0.004991188880   2.754176838920
     242   81  2   0.42380   3.537610435620  -0.088798606679   1.762564837430
     243   81  2   0.42380   3.964373318050  -0.727704275977   3.203501853080
     244   82  1  -0.84760  -7.076105472880  -6.585164621540  -9.780788458500
     245   82  2   0.42380  -6.296510120700  -7.192204235810  -9.934846868110
     246   82  2   0.42380  -6.894164027920  -6.003662145760  -8.987849506700
     247   83  1  -0.84760   5.294351435070  -1.600448931420   4.427846332180
     248   83  2   0.42380   5.479220382690  -2.342883694490   3.783940986030
     249   83  2   0.42380   4.533764479880  -1.857829703420   5.023885443150
     250   84  1  -0.84760   0.342782550447  -6.315265508440   7.712936267060
     251   84  2   0.42380   0.311704491905  -7.036706021870   7.021157588690
     252   84  2   0.42380  -0.379071870554  -5.647594694300   7.530887156020
     253   85  1  -0.84760   5.276703913980  -9.981698300880  -3.124582067870
     254   85  2   0.42380   5.900832806500   9.892367558260  -3.895687584440
     255   85  2   0.42380   4.921350759100   9.129618438380  -2.834812853810
     256   86  1  -0.84760  -4.732179643490   1.703787437450   9.609637452440
     257   86  2   0.42380  -4.306804155980   2.545346028520   9.276718795060
     258   86  2   0.42380  -5.536474896250   1.494280376900   9.053565570430
     259   87  1  -0.84760  -3.311147973690  -3.807116146250  -3.831919309410
     260   87  2   0.42380  -2.573804787580  -4.357794077420  -4.223172222530
     261   87  2   0.42380  -4.151378793170  -3.956554954590  -4.353148829440
     262   88  1  -0.84760   7.671339994070   8.388820087370  -0.111114248900
     263   88  2   0.42380   8.089558083950   7.582279459990   0.306720462053
     264   88  2   0.42380   7.647220770670   9.134521676160   0.554729128732
     265   89  1  -0.84760  -7.827117091580   5.713129652580  -1.621806986520
     266   89  2   0.42380  -7.779578012460   6.073157045190  -0.690077244309
     267   89  2   0.42380  -8.361562209190   6.336112400630  -2.192999521390
     268   90  1  -0.84760   6.347976534040   5.233002129300  -6.534838343340
     269   90  2   0.42380   5.680533937350   5.543401526180  -5.857953866830
     270   90  2   0.42380   5.869781667500   4.922176705770  -7.356250070620
     271   91  1  -0.84760  -1.465093497830  -4.358144708820   6.602596339380
     272   91  2   0.42380  -2.452779854330  -4.511102711400   6.635452246420
     273   91  2   0.42380  -1.280217411020  -3.375459851530   6.590295779680
     274   92  1  -0.84760  -1.245007385450  -4.878474750130  -5.132860396400
     275   92  2   0.42380  -0.721930515417  -5.582906727540  -5.612616769190
     276   92  2   0.42380  -1.433130946400  -4.120027268540  -5.756853139540
     277   93  1  -0.84760  -8.041806203950  -4.840293593000   8.156820844940
     278   93  2   0.42380  -7.833042923060  -5.435354323820   8.932914021820
     279   93  2   0.42380  -8.347343106940  -5.395885055170   7.383538666130
     280   94  1  -0.84760   3.701589548770  -3.528533529700  -6.958293175310
     281   94  2   0.42380   3.591484759200  -3.543717079420  -7.952097177680
     282   94  2   0.42380   3.509499228800  -2.608908187020  -6.615670149130
     283   95  1  -0.84760  -7.825557843330  -1.376948606810  -0.432616279029
     284   95  2   0.42380  -7.923370505660  -1.720617225810   0.501366891807
     285   95  2   0.42380  -6.879113675470  -1.092727973290  -0.585789607647
     286   96  1  -0.84760  -3.725228391210   3.681010188360   3.083259867130
     287   96  2   0.42380  -4.537711261410   3.480023886010   2.536015779070
     288   96  2   0.42380  -2.918822795230   3.689512679080   2.491958148530
     289   97  1  -0.84760  -3.307947140090  -0.132494286180   5.333955150050
     290   97  2   0.42380  -3.930931952860  -0.676168229762   5.896368313240
     291   97  2   0.42380  -3.028521971690  -0.665662051361   4.535422928140
     292   98  1  -0.84760   6.298112795130  -6.677579472200   0.702920657351
     293   98  2   0.42380   5.403362226510  -6.468758724880   0.308186170078
     294   98  2   0.42380   6.762546634810  -5.825758671650   0.945206712074
     295   99  1  -0.84760   5.497549039370  -8.058290780890   4.948144938940
     296   99  2   0.42380   5.636763436930  -9.019204150540   4.708844191880
     297   99  2   0.42380   4.913110264400  -7.625204289510   4.261947147260
     298  100  1  -0.84760  -8.992220112520   7.703970356450  -3.371186147700
     299  100  2   0.42380  -9.376014131860   7.227854933390  -4.162398037550
     300  100  2   0.42380  -9.673089880740   8.334965539950  -2.999350919240
     301  101  1  -0.84760  -2.144366756580  -6.638277754040  -8.909977570330
     302  101  2   0.42380  -2.695827518090  -5.804087794730  -8.914236712640
     303  101  2   0.42380  -1.364664729430  -6.519264004820  -8.295241467310
     304  102  1  -0.84760  -1.263703343090   7.733914893180   4.058569664210
     305  102  2   0.42380  -1.832493173170   8.334997371920   4.619976809650
     306  102  2   0.42380  -1.640452419210   7.686944259400   3.133445946430
     307  103  1  -0.84760  -7.637234069820   9.088668683040   7.168991888360
     308  103  2   0.42380  -8.609346106550   8.965440803750   6.969459741040
     309  103  2   0.42380  -7.530329109700   9.754404763690   7.907481428180
     310  104  1  -0.84760   7.050373968880   1.212375342180   8.845329524160
     311  104  2   0.42380   6.086805172120   1.078477133100   9.076860177700
     312  104  2   0.42380   7.411437646510   0.379171492006   8.426516481440
     313  105  1  -0.84760  -5.442623711020   8.852681197760   3.040269902980
     314  105  2   0.42380  -5.513900420200   7.961815764020   3.488910527190
     315  105  2   0.42380  -4.619357665760   8.875313837480   2.473065546210
     316  106  1  -0.84760   4.675485769440  -7.459533865730  -4.882694346560
     317  106  2   0.42380   4.719134086860  -8.392453454210  -4.525264820900
     318  106  2   0.42380   5.303154228700  -7.369128909540  -5.655907932280
     319  107  1  -0.84760  -9.841267840540  -3.151586454100  -8.179477146670
     320  107  2   0.42380   9.879647000860  -2.629144614340  -7.373768763740
     321  107  2   0.42380   9.537024832770  -3.924308474320  -8.307464174930
     322  108  1  -0.84760   6.879946904840  -9.648143254760   1.861022586400
     323  108  2   0.42380   6.122758475550  -9.961029213230   2.434405581910
     324  108  2   0.42380   6.585660883950  -8.859209184450   1.321598105480
     325  109  1  -0.84760   5.112846324920  -4.795249095280  -3.434727465500
     326  109  2   0.42380   4.383695531610  -5.373475558530  -3.800778387940
     327  109  2   0.42380   5.980673719320  -5.290866523300  -3.469926592700
     328  110  1  -0.84760   2.793032284920  -5.530729098740  -5.389006259560
     329  110  2   0.42380   3.503166375190  -6.234555450550  -5.370620386230
     330  110  2   0.42380   2.996828661070  -4.870414897370  -6.111814804430
     331  111  1  -0.84760   9.219510964350   9.184592602080   3.668148495140
     332  111  2   0.42380   8.334979126310   8.793958287070   3.413181321920
     333  111  2   0.42380   9.947899115450   8.712868684900   3.171230748130
     334  112  1  -0.84760  -9.447751060080  -2.407063371560   8.579900516990
     335  112  2   0.42380  -9.953097054180  -2.215088950770   9.421191933810
     336  112  2   0.42380  -9.276385302060  -3.389852067960   8.510906638870
     337  113  1  -0.84760  -8.509254529940  -6.913285619560   6.077520169790
     338  113  2   0.42380  -8.760554291510  -7.180697684990   7.007756278040
     339  113  2   0.42380  -8.920063353170  -7.550185278850   5.425143794720
     340  114  1  -0.84760  -5.432011662700  -1.391251538030   6.866612196960
     341  114  2   0.42380  -6.052005492770  -0.622594481834   6.709214672720
     342  114  2   0.42380  -5.604901498450  -1.778928138520   7.772049084950
     343  115  1  -0.84760   8.489963837940   1.574871794140  -5.666221018190
     344  115  2   0.42380   8.295474768460   1.422226241800  -6.635175783500
     345  115  2   0.42380   9.194408564170   0.933351023914  -5.362562115730
     346  116  1  -0.84760   7.854740265490  -4.574430307090   1.262301985360
     347  116  2   0.42380   8.382365301060  -3.800606816980   0.911860794885
     348  116  2   0.42380   8.445584479570  -5.153727076970   1.823834145710
     349  117  1  -0.84760   7.714217491610   2.035934507860  -8.580847753280
     350  117  2   0.42380   8.274201147600   2.864435866490  -8.578897424280
     351  117  2   0.42380   7.589102536860   1.720405300550  -9.521479225980
     352  118  1  -0.84760  -3.466245930660  -8.452616505760   6.899542048160
     353  118  2   0.42380  -4.338808606190  -7.964418199370   6.882314427620
     354  118  2   0.42380  -2.847623609880  -8.006855640660   7.546537933290
     355  119  1  -0.84760   0.506479331690  -6.881875630050  -6.021959961950
     356  119  2   0.42380   0.697255321020  -6.533430125560  -6.939669203650
     357  119  2   0.42380   1.184535166660  -6.521911646810  -5.381127522520
     358  120  1  -0.84760  -5.119317065890  -8.179368165410   9.834107089650
     359  120  2   0.42380  -5.506677271010  -9.070283478830  -9.928781173380
     360  120  2   0.42380  -4.263680620020  -8.044288902430  -9.666253174920
     361  121  1  -0.84760  -9.234413830320  -8.468161597880   4.218010734510
     362  121  2   0.42380  -8.328918065460  -8.891279204980   4.185623848430
     363  121  2   0.42380  -9.934885397650  -9.181392781930   4.243325976180
     364  122  1  -0.84760   0.158083504559  -8.205585144380   5.548080232410
     365  122  2   0.42380  -0.661441888603  -8.256929461210   4.977342209240
     366  122  2   0.42380   0.544923924543  -9.121039752050   5.658973653100
     367  123  1  -0.84760   0.235603484020   5.900783013090  -0.394887720879
     368  123  2   0.42380   0.396245719616   5.007518243540  -0.814735459488
     369  123  2   0.42380   0.690387763191   6.609320784730  -0.934466710075
     370  124  1  -0.84760  -8.354051044300  -8.587440168420   0.180335979279
     371  124  2   0.42380  -8.487952353610  -7.742780111180   0.698621447970
     372  124  2   0.42380  -8.892532008480  -8.550859090540  -0.661507281642
     373  125  1  -0.84760   8.876469260140  -2.457825040670  -0.162393760091
     374  125  2   0.42380   9.553881422010  -1.730261986710  -0.053928256486
     375  125  2   0.42380   8.340802488740  -2.293716785480  -0.990723157493
     376  126  1  -0.84760   6.815953177120  -0.451076159443   0.745418182990
     377  126  2   0.42380   6.472533115140  -1.329186215830   1.078562881130
     378  126  2   0.42380   6.633940859050  -0.372160443169  -0.234706210032
     379  127  1  -0.84760   7.917442650120   1.425747164590   2.503549338180
     380  127  2   0.42380   7.649074655310   0.641338018980   1.944370554930