LAMMPS Atom File

         300 atoms
         200 bonds
         100 angles
           0 dihedrals
           0 impropers

           2 atom types
           1 bond types
           1 angle types

          0.0 36.0000000000 xlo xhi
          0.0 36.0000000000 ylo yhi
          0.0 31.1769145362 zlo zhi
          0.0000000000 18.0000000000 0.0000000000 xy xz yz

Masses

           1 15.9994
           2 1.00794

Atoms

           1       1       1     -0.84760     6.3376029427800     8.7545099542400     7.3411842724300
           2       1       2      0.42380     6.3010875172900     9.7350690031300     7.1483875521600
           3       1       2      0.42380     7.0055076664700     8.3205745976700     6.7365328138300
           4       2       1     -0.84760    11.4524080802000   -10.1524948324000    -6.6851121390200
           5       2       2      0.42380    12.2918974297000   -10.5387646685000    -6.3029430066000
           6       2       2      0.42380    10.9419481792000   -10.8691555605000    -7.1603258701700
           7       3       1     -0.84760     6.2738496317900    -9.7756459018800    -9.7497523953000
           8       3       2      0.42380     6.2531189343100    -8.8151475652700   -10.0272648879000
           9       3       2      0.42380     5.3712454841300   -10.1826515610000    -9.8899385076400
          10       4       1     -0.84760   -14.9860988987000     9.1896756299800    -8.9770092832600
          11       4       2      0.42380   -14.3689148659000     9.1481662836500    -8.1912861489300
          12       4       2      0.42380   -14.7198206340000     8.4966973605400    -9.6469921217400
          13       5       1     -0.84760    -0.5908394927260    -5.8702225242600    -0.3375862522380
          14       5       2      0.42380    -1.4121529683700    -5.3999765439200    -0.0146111870988
          15       5       2      0.42380    -0.8435709339040    -6.7609341534700    -0.7154216823160
          16       6       1     -0.84760   -10.2428499868000     3.7383498352800    13.3500783185000
          17       6       2      0.42380    25.1025693563000     3.9845979980400    14.0648412205000
          18       6       2      0.42380   -10.0669850178000     2.7545118385400    13.3837578204000
          19       7       1     -0.84760    -0.7536348696140    10.3127846935000     6.8612095976500
          20       7       2      0.42380    -1.3314517022900     9.5268260625800     7.0812021848100
          21       7       2      0.42380    -0.4835409170630    10.7747566850000     7.7059765098100
          22       8       1     -0.84760    -5.8534345899400   -12.2876258504000    -5.2215861241100
          23       8       2      0.42380    -5.3154585016100   -11.5197127304000    -5.5692801973700
          24       8       2      0.42380    -5.7453462950600   -13.0732356832000    -5.8307938974200
          25       9       1     -0.84760     4.8584271371200   -14.6326032569000    -2.2490441249400
          26       9       2      0.42380     4.2230421126100   -14.0023806278000    -2.6952563036500
          27       9       2      0.42380     4.4333159401200   -15.0064266462000    -1.4247040593300
          28      10       1     -0.84760    -9.0660758251300     1.2857204923200    12.9079334302000
          29      10       2      0.42380    -9.1107456658100     1.4642949951200    11.9250215561000
          30      10       2      0.42380    -8.1102088071100     1.2741966407200    13.2015070065000
          31      11       1     -0.84760    -0.7591841246610    10.7726059880000     3.8721483659700
          32      11       2      0.42380    -0.4661529077090    10.4701918185000     4.7791645598400
          33      11       2      0.42380    -1.5724397781200    11.3479587478000     3.9592370792900
          34      12       1     -0.84760   -16.6058229145000    -3.2574205290900    -4.7519969119900
          35      12       2      0.42380   -16.7922780999000    -3.8046245426700    -3.9360298591100
          36      12       2      0.42380   -16.5320993291000    -2.2932762212900    -4.4970643980000
          37      13       1     -0.84760   -20.1984209753000    -2.8519272405700   -11.9344705255000
          38      13       2      0.42380   -20.9810224795000    -2.4952478371200   -11.4242600898000
          39      13       2      0.42380   -20.0773824030000    -3.8219927941900   -11.7239414641000
          40      14       1     -0.84760   -13.0254258063000    14.2236121418000   -12.9043827745000
          41      14       2      0.42380   -13.4816161125000    13.4187276340000   -13.2839237258000
          42      14       2      0.42380   -12.0898925874000    14.2724549405000   -13.2542284223000
          43      15       1     -0.84760     2.6705059828200   -13.3721580192000    -3.8410734032400
          44      15       2      0.42380     2.0981829835100   -14.0461997115000    -4.3081003632900
          45      15       2      0.42380     2.1889750498700   -12.4966515644000    -3.8008688228900
          46      16       1     -0.84760   -17.0641422060000    -3.0494050321600   -15.0593855753000
          47      16       2      0.42380   -17.8618463989000    -2.8905081859700   -14.4776469631000
          48      16       2      0.42380     0.6589036230470    -3.0210891508700    15.1570631375000
          49      17       1     -0.84760    18.6366479653000    -2.6905039656800     4.6461402401800
          50      17       2      0.42380    18.2739791111000    -3.5288130312600     5.0532142048500
          51      17       2      0.42380    19.6360928557000    -2.7136421253500     4.6701097336000
          52      18       1     -0.84760     4.6591046081700    -3.9341541603700     8.7549763183300
          53      18       2      0.42380     4.9786083227200    -4.6561065392800     8.1412156654900
          54      18       2      0.42380     4.3271025017400    -4.3423462127500     9.6053608488200
          55      19       1     -0.84760   -16.8054961131000     7.3648290447900    -6.9889040088700
          56      19       2      0.42380   -16.4803820126000     7.9356159840300    -7.7428954489000
          57      19       2      0.42380   -17.6842129555000     6.9559653428400    -7.2352516984900
          58      20       1     -0.84760     0.9204464545180     3.4182541873000     1.9605812299600
          59      20       2      0.42380     1.4081189851900     2.7841601126300     1.3604977296900
          60      20       2      0.42380     1.1350052038700     4.3586442951500     1.6967043872300
          61      21       1     -0.84760     7.3403266411000    -2.0123980556000     9.1600166797200
          62      21       2      0.42380     6.9019002819200    -1.9517564103000    10.0567356538000
          63      21       2      0.42380     6.7295362084200    -1.6346558140700     8.4641389273000
          64      22       1     -0.84760   -11.2022430198000    16.7566320807000   -10.8324475179000
          65      22       2      0.42380   -11.7688566948000    15.9331414156000   -10.8039507146000
          66      22       2      0.42380   -11.6892983693000    17.4795550366000   -11.3225082146000
          67      23       1     -0.84760    11.7937641076000    -2.5646593654500     7.1533814268400
          68      23       2      0.42380    11.2410277165000    -3.3084499675300     7.5292245086700
          69      23       2      0.42380    12.7632205922000    -2.7964336436100     7.2335986842500
          70      24       1     -0.84760   -17.2461245827000    -0.0840059072713    -1.3150715744500
          71      24       2      0.42380   -17.7785605695000     0.0439042829126    -0.4783213708580
          72      24       2      0.42380   -16.2705913723000    -0.0496478984631    -1.0979207452700
          73      25       1     -0.84760    -6.9067800892900    -9.7403676733100     1.4100480889000
          74      25       2      0.42380    -7.4082568569100   -10.2258860582000     0.6939524601870
          75      25       2      0.42380    -6.2659057305400   -10.3679018069000     1.8521803852200
          76      26       1     -0.84760   -13.6831892319000    -0.0607268843622     0.1250056059640
          77      26       2      0.42380   -14.0566260541000     0.2872404123300     0.9849263582740
          78      26       2      0.42380   -13.0513925777000     0.6118147456460    -0.2603782852140
          79      27       1     -0.84760     1.8377919891900    -7.2780902928800    -1.3227263534100
          80      27       2      0.42380     1.1457391681900    -6.5775568654800    -1.1486119943400
          81      27       2      0.42380     2.5040756779100    -7.2810102649600    -0.5770337090130
          82      28       1     -0.84760   -11.7928187144000    -2.0688179512500    -3.8278067896000
          83      28       2      0.42380   -12.1380706752000    -2.5578857424000    -3.0267988126100
          84      28       2      0.42380   -11.1087326146000    -2.6311228890000    -4.2923919432900
          85      29       1     -0.84760   -18.8565708463000    -5.6450322763200   -11.2828552355000
          86      29       2      0.42380   -19.0968157840000    -6.5892812117300   -11.0577412246000
          87      29       2      0.42380   -17.9133487464000    -5.4654108688900   -11.0034483274000
          88      30       1     -0.84760   -18.5971931764000    -3.2838396738500    -6.3663460214100
          89      30       2      0.42380   -17.8083270040000    -3.3905526444100    -5.7611167228100
          90      30       2      0.42380   -18.4454279481000    -3.8042853532500    -7.2066457359400
          91      31       1     -0.84760   -11.6550732281000    -2.3200863447100   -10.1887640135000
          92      31       2      0.42380   -11.7823818636000    -1.6896901635900    -9.4230008868500
          93      31       2      0.42380   -11.6617283111000    -1.8073171997100   -11.0472647496000
          94      32       1     -0.84760     3.5834584713800    12.5078852058000    10.3195421240000
          95      32       2      0.42380     3.0781209865300    12.1666648133000    11.1121344972000
          96      32       2      0.42380     4.3745407608900    11.9200503746000    10.1503114457000
          97      33       1     -0.84760    -6.3960955656800    15.0220506899000    13.1902970321000
          98      33       2      0.42380    -6.0190661698900    15.8074442437000    13.6812204481000
          99      33       2      0.42380    -6.0328854343800    14.1774405756000    13.5836316930000
         100      34       1     -0.84760     5.7753406262600    10.7008699880000    10.1208157347000
         101      34       2      0.42380     5.1485900986300    10.0507123930000     9.6913056907600
         102      34       2      0.42380     6.6486958069200    10.2499498619000    10.3049943660000
         103      35       1     -0.84760    -5.0857559886200    -7.0122693991500     0.1805012933190
         104      35       2      0.42380    -5.6961521219300    -7.6650475957200     0.6291628434060
         105      35       2      0.42380    -5.2928044727000    -6.9801104103100    -0.7973006931180
         106      36       1     -0.84760    -0.7506855257920     4.1950146630000     3.9806925725700
         107      36       2      0.42380    -0.4223107380560     4.8128545360600     4.6951461330200
         108      36       2      0.42380     0.0295496483798     3.7556513862500     3.5355038664800
         109      37       1     -0.84760   -13.7334917709000     0.1906190306240    -6.1439564560900
         110      37       2      0.42380   -14.3695868323000    -0.4674278786320    -6.5468923543700
         111      37       2      0.42380   -13.2485540558000    -0.2382996370830    -5.3818119888300
         112      38       1     -0.84760    10.9504361217000    -7.5264373876800    -7.0721149359800
         113      38       2      0.42380    11.0984775209000    -8.4723529693700    -6.7834499806500
         114      38       2      0.42380    11.4195995339000    -6.9081973033900    -6.4415081719600
         115      39       1     -0.84760   -21.0132596995000    -3.9733950166700    -5.7739690784300
         116      39       2      0.42380   -21.4802350968000    -4.2987757251600    -6.5961985919200
         117      39       2      0.42380   -20.1675910681000    -3.5070067987500    -6.0334427689500
         118      40       1     -0.84760    -3.0848443653500   -11.3524377211000   -13.6581671775000
         119      40       2      0.42380    -3.3618199550700   -10.7317668960000   -12.9246467281000
         120      40       2      0.42380    -2.1008057471200   -11.5202654226000   -13.5989906582000
         121      41       1     -0.84760    -3.4275359550200     3.4109285603900     4.4700221282000
         122      41       2      0.42380    -3.5526710262400     2.4939979984700     4.0911031941500
         123      41       2      0.42380    -2.4688557866800     3.6808008447600     4.3800149898200
         124      42       1     -0.84760   -12.9587232445000    -4.3823599193700    -8.7507582800600
         125      42       2      0.42380   -12.6093306255000    -3.5983798321800    -9.2638859646200
         126      42       2      0.42380   -13.2369795890000    -5.1007802869900    -9.3882891280200
         127      43       1     -0.84760    -3.3571055598300     8.4738515598100    -0.9756645219910
         128      43       2      0.42380    -3.4736912794900     7.7999903725300    -0.2460626646450
         129      43       2      0.42380    -3.1627881804300     8.0030849799500    -1.8362570988500
         130      44       1     -0.84760   -10.8649555076000    11.5725538851000     0.0338957162479
         131      44       2      0.42380   -10.1100337766000    11.2341318732000    -0.5278548706840
         132      44       2      0.42380   -11.3529939303000    10.7986974644000     0.4375846286880
         133      45       1     -0.84760    -7.6926704956600    -1.1865534292800    -0.0453963376810
         134      45       2      0.42380    -7.3006750098300    -0.8683532743000    -0.9085812544060
         135      45       2      0.42380    -7.0088811386400    -1.1083972952000     0.6800853877510
         136      46       1     -0.84760     8.6722793952300   -10.5312919073000   -10.7644430717000
         137      46       2      0.42380     9.0631243307300    -9.8308485588800   -10.1672669234000
         138      46       2      0.42380     7.7170373073800   -10.6880309348000   -10.5135537916000
         139      47       1     -0.84760     5.1910015429500    -5.5656683254400     6.6188942866800
         140      47       2      0.42380     5.0335514089200    -6.5529774810300     6.5981557574200
         141      47       2      0.42380     5.4447114423400    -5.2493302448700     5.7048037519200
         142      48       1     -0.84760   -16.6570668020000    -5.8271217360100    -2.6512485959400
         143      48       2      0.42380   -15.7044819169000    -6.1311916370100    -2.6401341013800
         144      48       2      0.42380   -17.2608539790000    -6.6236391092700    -2.6828890599700
         145      49       1     -0.84760    -5.2740876755200    12.1174018010000    15.4429342366000
         146      49       2      0.42380   -24.0855362667000    11.9846136222000   -15.1648419303000
         147      49       2      0.42380   -22.4906950167000    11.6644518277000   -15.3083839372000
         148      50       1     -0.84760    11.0909273584000    -0.1582673035710     6.7471591100200
         149      50       2      0.42380    11.4480262853000    -1.0503508508300     7.0240477178000
         150      50       2      0.42380    11.5760759851000     0.1563357125810     5.9312818200900
         151      51       1     -0.84760   -14.0178025963000     3.0603489913700    -5.4999788759700
         152      51       2      0.42380   -14.2143813697000     3.6463239087000    -6.2861023917800
         153      51       2      0.42380   -14.1322004437000     2.1020139536700    -5.7617174631800
         154      52       1     -0.84760   -14.0324482265000    15.0715844329000     2.3999437539900
         155      52       2      0.42380   -13.4642254694000    14.2856198869000     2.6436292703100
         156      52       2      0.42380   -14.7413473239000    14.7835466687000     1.7561298708700
         157      53       1     -0.84760    -9.9820857567100    -0.6796599644100    -1.4744938715700
         158      53       2      0.42380   -10.7919112177000    -1.2432252728100    -1.6375179982700
         159      53       2      0.42380    -9.5458661181600    -0.9621927533570    -0.6201592473700
         160      54       1     -0.84760    -0.6270598370450     9.0224551813200    -1.1049242856100
         161      54       2      0.42380    -0.1588695973330     9.5346060050800    -0.3848552381190
         162      54       2      0.42380    -1.6151384465400     9.1462613129400    -1.0134218090100
         163      55       1     -0.84760    -9.9315340718100    13.5963636695000   -11.1656771276000
         164      55       2      0.42380    -9.1276467311500    13.3174880001000   -11.6910279671000
         165      55       2      0.42380    -9.8432070071000    14.5581810981000   -10.9066297115000
         166      56       1     -0.84760   -13.4014767362000    17.1804055564000     4.7047528169100
         167      56       2      0.42380   -13.9512935435000    16.4513100485000     4.2971731084700
         168      56       2      0.42380   -12.5594911481000    17.2970728844000     4.1780185348700
         169      57       1     -0.84760   -13.5400016565000     6.2573097161100    -3.8216409113800
         170      57       2      0.42380   -12.8565981856000     5.5628907038100    -4.0469006087300
         171      57       2      0.42380   -14.0049879526000     6.0044649061900    -2.9731968964100
         172      58       1     -0.84760    19.0010205172000    -1.0795400281300     2.3272501765600
         173      58       2      0.42380    18.6466657874000    -1.5258097101000     3.1490020225300
         174      58       2      0.42380    18.7103810733000    -1.5909682387100     1.5185661226400
         175      59       1     -0.84760     9.7966450335700     0.3703017541510     9.2176141657100
         176      59       2      0.42380    10.2519009536000     0.2759951362520     8.3322620837100
         177      59       2      0.42380     9.7014100571800    -0.5305902141270     9.6410807650600
         178      60       1     -0.84760     4.8050897817400     3.3303280047400    -0.2729328405120
         179      60       2      0.42380     5.7865210604300     3.1807392969600    -0.1528667599350
         180      60       2      0.42380     4.6557388116300     4.1978634623600    -0.7473551392110
         181      61       1     -0.84760     1.1226733958400     7.0496123565300     1.2541594553700
         182      61       2      0.42380     1.0841673318000     7.4426015534800     2.1728959650000
         183      61       2      0.42380     0.5095883196490     7.5570150368800     0.6486272850240
         184      62       1     -0.84760    20.2656349199000    -5.9201087876000     8.3707892966800
         185      62       2      0.42380    19.4459499946000    -5.3880195288600     8.5829157779300
         186      62       2      0.42380    20.5229991341000    -6.4675226968300     9.1670943093500
         187      63       1     -0.84760    20.0310072354000    -5.8063466354500     5.2888355891500
         188      63       2      0.42380    20.0422750322000    -6.3513060444500     6.1272223014100
         189      63       2      0.42380    20.9407354914000    -5.4236401826900     5.1278067985600
         190      64       1     -0.84760    -7.6534463053300   -11.6526654886000    -3.2027787782700
         191      64       2      0.42380    -8.1760163490000   -12.5037254668000    -3.2539399259100
         192      64       2      0.42380    -6.8649712650400   -11.7083394077000    -3.8153206344500
         193      65       1     -0.84760   -25.1798286332000    11.9594849826000   -13.7469639879000
         194      65       2      0.42380   -25.9013753738000    12.6497872969000   -13.6935503566000
         195      65       2      0.42380   -25.0415971949000    11.5512988996000   -12.8445914534000
         196      66       1     -0.84760     4.4059606061800    -8.3623299229900     5.1703912866800
         197      66       2      0.42380     4.8158912469700    -9.2733033651800     5.1247376191900
         198      66       2      0.42380     3.8526232596800    -8.2044531367000     4.3525326795100
         199      67       1     -0.84760   -16.1473554341000    -4.9056515036600   -11.7343058265000
         200      67       2      0.42380   -15.3003209569000    -4.7809381986200   -12.2510061129000
         201      67       2      0.42380   -16.9305103550000    -4.7924788046500   -12.3457470011000
         202      68       1     -0.84760    -2.6136243092300     5.2711626150900     1.6835058039100
         203      68       2      0.42380    -2.0515655575600     5.2857851915100     0.8565377634580
         204      68       2      0.42380    -2.0583937092000     4.9695787381400     2.4585968604700
         205      69       1     -0.84760    13.6187107201000     6.0637788096400    11.8984147168000
         206      69       2      0.42380    12.8436968812000     6.5761872862900    12.2682675288000
         207      69       2      0.42380    13.3906346000000     5.7279818802000    10.9845100688000
         208      70       1     -0.84760   -10.0818358713000    -3.6907275942800    -8.0049233688800
         209      70       2      0.42380   -10.9809965435000    -3.3543152752200    -7.7250361825100
         210      70       2      0.42380   -10.1018628526000    -3.9267423176600    -8.9764664561200
         211      71       1     -0.84760    14.5146079551000     6.1455472001700     8.9861206414900
         212      71       2      0.42380    14.9704170692000     6.4382048274200     9.8267094617500
         213      71       2      0.42380    15.1179029940000     5.5326369135100     8.4758500499600
         214      72       1     -0.84760     2.3733807883000     1.3385515715700     0.8273733509160
         215      72       2      0.42380     3.1708175577500     1.2424508547500     0.2316727122100
         216      72       2      0.42380     2.3534633603300     0.5829780209870     1.4821343040300
         217      73       1     -0.84760   -13.0993840156000   -16.6811717227000     6.3506333646700
         218      73       2      0.42380   -12.8766853255000   -17.1149946944000     7.2236757018800
         219      73       2      0.42380   -13.2161848683000   -17.3843158292000     5.6492447945700
         220      74       1     -0.84760     9.5702596448700    10.5965539621000    -7.5205970575200
         221      74       2      0.42380     9.5036243585500     9.5992254179200    -7.5505221912000
         222      74       2      0.42380     9.6339713834000    10.8979571961000    -6.5692312472800
         223      75       1     -0.84760    -1.6704967757600    -8.9621568080900   -12.5946525902000
         224      75       2      0.42380    -0.9604804140420    -8.7324689847200   -13.2603253851000
         225      75       2      0.42380    -1.8893091365400    -8.1536529178500   -12.0483535785000
         226      76       1     -0.84760   -10.3092000613000     0.1273981285910   -11.1507126040000
         227      76       2      0.42380    -9.8524237468200    -0.0007787086909   -10.2704137361000
         228      76       2      0.42380    -9.6349519227900     0.3899136325340   -11.8409843316000
         229      77       1     -0.84760   -13.4666904265000     8.0898441139800    -6.3874804624200
         230      77       2      0.42380   -14.3040973695000     7.6562738413400    -6.0546645516100
         231      77       2      0.42380   -13.1752377666000     8.7932914966500    -5.7392388972500
         232      78       1     -0.84760    14.0080318086000    -9.3403468355200    -3.6598693219300
         233      78       2      0.42380    13.8638415099000    -8.3600826958600    -3.7951149290600
         234      78       2      0.42380    14.1442134875000    -9.5260797252200    -2.6867517319100
         235      79       1     -0.84760    -9.6508572294000     2.2585390945800    10.4648759399000
         236      79       2      0.42380    -9.2000259992500     1.8972662120500     9.6486449026100
         237      79       2      0.42380   -10.3956614059000     2.8676003854900    10.1922753482000
         238      80       1     -0.84760     3.9751276648100     7.2765674463000    -0.4094439921890
         239      80       2      0.42380     3.5939305526200     7.2192247758900     0.5132697119540
         240      80       2      0.42380     3.2386514641000     7.1898289575700    -1.0803234451200
         241      81       1     -0.84760    12.5171591249000    -8.5804691587000    -0.9643609827200
         242      81       2      0.42380    12.4529760643000    -8.7303736348800     0.0222540297087
         243      81       2      0.42380    11.6792732421000    -8.9018861978000    -1.4055393302800
         244      82       1     -0.84760   -22.0582911105000    -3.9444891935600    -8.3338567564300
         245      82       2      0.42380   -21.1810711369000    -3.6520234547700    -8.7145783206300
         246      82       2      0.42380   -22.7878153329000    -3.7493760343000    -8.9893910911700
         247      83       1     -0.84760    15.8227747949000     4.7434191634800    11.9489805991000
         248      83       2      0.42380    15.8900106986000     4.0054480761900    12.6204551016000
         249      83       2      0.42380    14.8654084982000     5.0127024564000    11.8444039180000
         250      84       1     -0.84760     2.8627188570500    10.7273919051000     1.7062083391300
         251      84       2      0.42380     2.9892725596700    11.3752407796000     2.4573914034900
         252      84       2      0.42380     3.7210979544500    10.2438101291000     1.5349366513300
         253      85       1     -0.84760     2.2970723101200    -7.2470469856600    -4.4914270335300
         254      85       2      0.42380     2.3885933638300    -7.8918020669800    -3.7325365395600
         255      85       2      0.42380     2.4888702018300    -6.3208353168900    -4.1668572977700
         256      86       1     -0.84760   -17.7951212710000    -0.9192965739130    -8.6003457414900
         257      86       2      0.42380   -17.9463812191000    -1.5873369751400    -7.8717563849900
         258      86       2      0.42380   -16.8363308235000    -0.9459465500450    -8.8832072918300
         259      87       1     -0.84760   -16.3446113618000    -4.3747680270400    -7.8741224264300
         260      87       2      0.42380   -15.8761055432000    -4.4593918632300    -8.7535205753600
         261      87       2      0.42380   -15.7059179288000    -4.5867331209700    -7.1344322902100
         262      88       1     -0.84760    -2.7631788888400     5.9136601559500     7.4050457130600
         263      88       2      0.42380    -3.3226806554300     6.6714830844800     7.0693938365700
         264      88       2      0.42380    -3.3173916223600     5.0822317104300     7.4447318060900
         265      89       1     -0.84760    -9.5347105350700    -3.7032785678500    -4.7620746333200
         266      89       2      0.42380    -9.8386556936100    -4.4346134786100    -5.3726207731800
         267      89       2      0.42380    -9.4283577518400    -2.8565411486300    -5.2833469502500
         268      90       1     -0.84760    11.3347916261000    -6.2502644831700    -3.0053151609700
         269      90       2      0.42380    11.7742289763000    -5.4187430165500    -3.3451193189800
         270      90       2      0.42380    11.9935466796000    -6.7815565440900    -2.4726140013400
         271      91       1     -0.84760    12.2292111295000    11.2528185670000    -5.7390302581500
         272      91       2      0.42380    13.1073046234000    10.7942185621000    -5.8755507747700
         273      91       2      0.42380    12.3622705081000    12.2434590234000    -5.7694718061800
         274      92       1     -0.84760    13.9772475775000    -3.4262777200200     8.6481958154600
         275      92       2      0.42380    14.4734172948000    -2.6871698911300     8.1926354694800
         276      92       2      0.42380    13.7500411669000    -3.1492690859900     9.5818142941200
         277      93       1     -0.84760    -0.4688760502520     4.9315292952500    14.1970297927000
         278      93       2      0.42380    -0.8672486061500     4.1552544634200    13.7084638379000
         279      93       2      0.42380    -0.8072366498060     4.9423353916000    15.1379842725000
         280      94       1     -0.84760    16.8492438538000   -14.6661731343000    15.2413756324000
         281      94       2      0.42380    16.6184160753000   -15.6390915471000    15.2291978367000
         282      94       2      0.42380    16.0299753379000   -14.1267730502000    15.0468334825000
         283      95       1     -0.84760   -23.5924752645000    -4.1512422910200   -13.1865323095000
         284      95       2      0.42380   -24.1804455369000    -4.7482065729900   -13.7323570110000
         285      95       2      0.42380   -22.6889442345000    -4.5692158284100   -13.0920346911000
         286      96       1     -0.84760    18.7602059374000    -8.0863525650200     2.5753325240900
         287      96       2      0.42380   -16.7113588238000    -8.7864527104700     2.0951075927700
         288      96       2      0.42380    18.9859420904000    -8.1079416423500     3.5492817532500
         289      97       1     -0.84760   -13.7794494882000   -14.9242267136000   -11.6988710014000