LAMMPS Atom File

         900 atoms
         600 bonds
         300 angles
           0 dihedrals
           0 impropers

           2 atom types
           1 bond types
           1 angle types

          0.0 27.0000000000 xlo xhi
          0.0 30.0000000000 ylo yhi
          0.0 34.7733297464 zlo zhi
          0.0000000000 9.3174856237 0.0000000000 xy xz yz

Masses

           1 15.9994
           2 1.00794

Atoms

           1       1       1     -0.84760   -14.6512444231000    14.3967755049000    -6.4291870687000
           2       1       2      0.42380   -15.1125521112000   -14.7301243491000    -6.2714171353200
           3       1       2      0.42380   -13.6765824053000    14.5580028818000    -6.5842344290300
           4       2       1     -0.84760   -14.7323947487000    -5.7275811638000   -16.8728075406000
           5       2       2      0.42380    -6.0188260095500    -6.2589505011700    17.3064422248000
           6       2       2      0.42380   -14.8829589874000    -4.7517966424500   -17.0314737876000
           7       3       1     -0.84760    -6.0725029899900     0.8811269876900     4.1471202755400
           8       3       2      0.42380    -6.9563112002600     0.8510722656670     3.6802372482800
           9       3       2      0.42380    -5.4723792337000     0.1754698528390     3.7704247948400
          10       4       1     -0.84760    -1.9056106054600    11.2422631117000    11.6621664229000
          11       4       2      0.42380    -0.9816374315200    11.4799206059000    11.9618203722000
          12       4       2      0.42380    -2.4392527197000    12.0779739439000    11.5324995461000
          13       5       1     -0.84760   -16.2543793262000    -7.6177310843500   -10.6360922214000
          14       5       2      0.42380     9.9146876483500    -7.1579791936000   -10.3227577257000
          15       5       2      0.42380   -16.1763457224000    -8.5077808022300   -10.1869572123000
          16       6       1     -0.84760     9.3139141470600   -11.4274428985000   -11.7744621165000
          17       6       2      0.42380     8.3707537516600   -11.4432714426000   -11.4425013873000
          18       6       2      0.42380     9.7504042298700   -10.5714008469000   -11.4975715003000
          19       7       1     -0.84760     9.4954117625500   -10.6602910736000    -7.5227082043700
          20       7       2      0.42380     9.9613442370700   -10.4358729987000    -6.6668206785400
          21       7       2      0.42380     9.2922794930500   -11.6391911109000    -7.5448892319000
          22       8       1     -0.84760   -10.0882448086000     8.6076394145600    -8.9623148567300
          23       8       2      0.42380   -10.1629493023000     8.8652924534400    -7.9989695654800
          24       8       2      0.42380    -9.7651271221900     7.6637624584900    -9.0308075757200
          25       9       1     -0.84760    13.7011877021000     2.9508338523200    10.2874046079000
          26       9       2      0.42380    12.8428242258000     2.8183216161800     9.7917710236500
          27       9       2      0.42380    14.1354467257000     2.0639306227800    10.4449538441000
          28      10       1     -0.84760    -0.6151959206940   -10.5848353264000    -9.5237860700300
          29      10       2      0.42380     0.2045278540900   -10.0121257826000    -9.5162553656600
          30      10       2      0.42380    -0.4709914670880   -11.3652294126000   -10.1322186018000
          31      11       1     -0.84760    -1.3619891257600    -6.4595015608000    -2.2068790206900
          32      11       2      0.42380    -0.9274814813770    -7.2913516197100    -1.8615840939000
          33      11       2      0.42380    -1.2479329714500    -5.7226387858200    -1.5405274284300
          34      12       1     -0.84760    16.5990311342000     0.8617394064780    14.5176295656000
          35      12       2      0.42380    16.3827427052000    -0.1050241755190    14.6539655184000
          36      12       2      0.42380    16.2042350556000     1.3998558844100    15.2623219266000
          37      13       1     -0.84760    -0.4988534290020     7.1785262847200     6.6373494859400
          38      13       2      0.42380    -0.6969478560560     7.0014889791900     5.6732870448000
          39      13       2      0.42380    -0.8426227065230     6.4213416615900     7.1927719650800
          40      14       1     -0.84760    -7.3798450824100   -10.4589833217000    -9.1392790461700
          41      14       2      0.42380    -6.8008468957300   -10.2237806352000    -9.9199459380600
          42      14       2      0.42380    -6.8335991715700   -10.4412505114000    -8.3018419128100
          43      15       1     -0.84760     2.6328615968300   -12.3821540594000    -3.7953238588100
          44      15       2      0.42380     3.1651587437300   -11.6187063897000    -3.4295269164000
          45      15       2      0.42380     2.0628458968700   -12.0593020227000    -4.5508691349000
          46      16       1     -0.84760    14.3413730010000   -13.3429361643000     3.4296586774600
          47      16       2      0.42380    13.6867923441000   -13.0966880015000     4.1444215794000
          48      16       2      0.42380   -12.4827620300000   -14.3267741610000     3.4633381793600
          49      17       1     -0.84760    -8.6401754742200    -1.0928128212200    11.8933475298000
          50      17       2      0.42380    -9.0887237841400    -0.5625408136150    12.6128028874000
          51      17       2      0.42380    -7.7257020960100    -0.7234950039730    11.7279909744000
          52      18       1     -0.84760    -6.2390869288600   -11.2613261427000     5.3560057150200
          53      18       2      0.42380    -6.8261298906700   -12.0110876687000     5.0506563820700
          54      18       2      0.42380    -5.4022654802400   -11.6349494008000     5.7561750843400
          55      19       1     -0.84760    -1.0888531030600     8.9771716567000     4.3188203181600
          56      19       2      0.42380    -2.0807102864900     9.1008087009400     4.2882718487100
          57      19       2      0.42380    -0.7756539470740     9.0281695119300     5.2671375158600
          58      20       1     -0.84760    -9.1813486991200    -5.1115897218900    -3.3934579637200
          59      20       2      0.42380    -9.0386077519400    -6.0777356831300    -3.6083695817800
          60      20       2      0.42380    -8.3169764651800    -4.6177776664500    -3.4883805379900
          61      21       1     -0.84760    -5.2215510344600    -2.5269813387600    16.9215208646000
          62      21       2      0.42380    -5.4306743356900    -2.1129589323100    16.0356016291000
          63      21       2      0.42380   -15.3880658858000    -2.6766518955400   -17.3451057192000
          64      22       1     -0.84760     9.0215649094500     1.1383162726400     0.6254128540840
          65      22       2      0.42380     8.0303347129500     1.2476154120000     0.5511404117710
          66      22       2      0.42380     9.2973742086700     0.2869087352690     0.1792800983210
          67      23       1     -0.84760    -1.6810424673900   -12.0697313220000     1.6808915293700
          68      23       2      0.42380    -0.7575075668520   -12.2779076538000     1.3587954220000
          69      23       2      0.42380    -1.9164414597100   -12.6814510143000     2.4361307845100
          70      24       1     -0.84760    -9.3447763493200    13.0699939495000   -11.5189177309000
          71      24       2      0.42380    -9.4004030966000    12.0748223274000   -11.4380529826000
          72      24       2      0.42380   -10.2114378950000    13.4768314449000   -11.2301600166000
          73      25       1     -0.84760    -5.1638160226700    12.2476784960000    -8.7918452277100
          74      25       2      0.42380    -4.6990124901300    12.5547918529000    -9.6222903265200
          75      25       2      0.42380    -6.1280984358100    12.5092666809000    -8.8334511073300
          76      26       1     -0.84760    14.8014998167000   -13.0651732364000    16.4865406067000
          77      26       2      0.42380    15.3392945921000   -13.8792483198000    16.7057631838000
          78      26       2      0.42380    13.9362648921000   -13.3402117822000    16.0673481408000
          79      27       1     -0.84760   -13.4075967831000     8.7098913860200    -3.9480547424000
          80      27       2      0.42380   -14.1935515131000     9.0643380826100    -4.4546538953600
          81      27       2      0.42380   -13.3561390247000     9.1587188016300    -3.0559190744100
          82      28       1     -0.84760    13.7978171118000     3.0304374068100     6.3060775589000
          83      28       2      0.42380    14.0355780593000     2.8945846568200     5.3443012012300
          84      28       2      0.42380    14.6138232755000     2.9098304540600     6.8713986214100
          85      29       1     -0.84760     5.9440468718000    -7.7869319586000    -5.8398816921300
          86      29       2      0.42380     5.6820846123100    -7.0516594856800    -5.2147815680300
          87      29       2      0.42380     6.9412061020400    -7.8500865474200    -5.8809300472000
          88      30       1     -0.84760     3.9624295463200   -10.0423194274000    -7.2008697198800
          89      30       2      0.42380     4.4363840826900    -9.1921352963000    -7.4301164005700
          90      30       2      0.42380     4.6099954958200   -10.8037018174000    -7.2317759853500
          91      31       1     -0.84760   -10.0644684714000    -2.5418143500800   -12.3526568725000
          92      31       2      0.42380   -10.4863911868000    -1.8802253712500   -12.9725610953000
          93      31       2      0.42380    -9.3052382619400    -2.1073707401400   -11.8680660773000
          94      32       1     -0.84760   -12.9536054407000    -4.5839497257800     0.1317484639070
          95      32       2      0.42380   -13.3519173071000    -3.7294969490600    -0.2018052940260
          96      32       2      0.42380   -13.0938354541000    -4.6538598511300     1.1193962339700
          97      33       1     -0.84760     3.5805319365800   -10.3022715279000    11.0231986613000
          98      33       2      0.42380     3.6679507400700    -9.7295323405400    10.2081356110000
          99      33       2      0.42380     3.0012961645500    -9.8401737128500    11.6947279084000
         100      34       1     -0.84760     3.1219125998600    -2.3976400572800    10.2697530605000
         101      34       2      0.42380     3.1372638215400    -2.8106933887500     9.3591756144100
         102      34       2      0.42380     2.1740911641800    -2.2651780444400    10.5597329585000
         103      35       1     -0.84760    13.7360006543000    13.7578847000000     3.3088025469700
         104      35       2      0.42380    13.8250486570000    13.8576495184000     4.2998209293600
         105      35       2      0.42380   -12.6927541754000    12.9983915621000     2.9975966202600
         106      36       1     -0.84760     7.3967295185400   -12.2848212590000     4.5514701820200
         107      36       2      0.42380     6.9056155872000   -11.9316600701000     5.3477642740800
         108      36       2      0.42380     8.1815305218500   -11.6966826620000     4.3560721886300
         109      37       1     -0.84760   -12.2959661704000     2.5743508747900    -4.6549489028300
         110      37       2      0.42380   -11.7799016106000     2.5288873693600    -3.7996066088800
         111      37       2      0.42380   -12.5935381441000     1.6554514254200    -4.9139367835800
         112      38       1     -0.84760     1.2072459418400     3.1477540976200     2.1137228024200
         113      38       2      0.42380     1.8139792471500     3.5798899199600     1.4465396736800
         114      38       2      0.42380     0.2838860209330     3.5184300643400     2.0136938858400
         115      39       1     -0.84760     3.6680276984900    -0.7055823909930    13.1087423930000
         116      39       2      0.42380     4.5168538278000    -0.2399663905320    13.3591339709000
         117      39       2      0.42380     3.7008105085900    -0.9616674498530    12.1426441941000
         118      40       1     -0.84760    -7.1358883924100    14.6719938759000   -13.0911232955000
         119      40       2      0.42380    -7.3723944345800   -14.7227804162000   -13.8512329814000
         120      40       2      0.42380    -7.9472750517800    14.5092725008000   -12.5297201934000
         121      41       1     -0.84760    11.9456096107000    -4.9305875767500     5.6511859000000
         122      41       2      0.42380    12.6843595299000    -4.3187507921900     5.9338593970000
         123      41       2      0.42380    12.3337981253000    -5.7881398577800     5.3136747707200
         124      42       1     -0.84760   -13.0363238190000    -1.8719662035700    -1.9374160567700
         125      42       2      0.42380   -13.8292171500000    -2.2644174607700    -2.4035728720000
         126      42       2      0.42380   -12.5274465291000    -1.2935143210300    -2.5749404276600
         127      43       1     -0.84760     5.0479440950300    13.3506203218000     3.9019726604100
         128      43       2      0.42380     4.5157296465500    12.5711404286000     4.2323646652600
         129      43       2      0.42380     5.9413754504500    13.3585805934000     4.3511018703700
         130      44       1     -0.84760    -5.4167953857000    -7.4515858285100     3.1417962277900
         131      44       2      0.42380    -6.1023689621700    -8.0733286777900     2.7630816907000
         132      44       2      0.42380    -4.5433925918800    -7.9309339758100     3.2277782808200
         133      45       1     -0.84760    13.8149201014000    -3.3674199518000     3.8939467331500
         134      45       2      0.42380    12.8894415370000    -3.2227368029900     3.5438664376200
         135      45       2      0.42380    13.8842922901000    -2.9915269475700     4.8180094738800
         136      46       1     -0.84760    -3.5942756822100    12.8360094152000     0.7468604036400
         137      46       2      0.42380    -2.9377713802500    13.4047708708000     0.2513682159430
         138      46       2      0.42380    -3.1020630260300    12.1926789762000     1.3332499051300
         139      47       1     -0.84760    -3.3847884974100   -10.5498721924000    12.0403052068000
         140      47       2      0.42380    -3.0204528218700   -11.4805623232000    12.0730984389000
         141      47       2      0.42380    -4.1654315582400   -10.4754689146000    12.6608376909000
         142      48       1     -0.84760     4.7456445733800    10.7941300219000   -13.4692924177000
         143      48       2      0.42380     4.9461849700700    10.3092294898000   -12.6180257008000
         144      48       2      0.42380     5.4752404874400    10.6215353993000   -14.1310332268000
         145      49       1     -0.84760     8.6539878284100    -5.2530225077100     8.6400635553500
         146      49       2      0.42380     9.3688181830000    -5.9509034743000     8.5955695037400
         147      49       2      0.42380     9.0076823754700    -4.3901167259000     8.2791012593900
         148      50       1     -0.84760    -6.0592305851700   -10.8691782201000    15.6192110224000
         149      50       2      0.42380    -6.9440587978400   -10.7685717728000    16.0741367052000
         150      50       2      0.42380    -5.3868723846300   -11.2189062884000    16.2716102318000
         151      51       1     -0.84760     1.9803921323000    -2.9219767662500    -4.1552890820600
         152      51       2      0.42380     2.2822568436600    -3.4032523861100    -4.9782419809300
         153      51       2      0.42380     1.0001252875300    -2.7349240000700    -4.2192279255200
         154      52       1     -0.84760    -9.2397955602600    -2.5247229233700    -1.8408156933500
         155      52       2      0.42380    -9.4738500602400    -2.6194212188200    -0.8732151952730
         156      52       2      0.42380    -9.4341038695900    -3.3827395462800    -2.3162646976900
         157      53       1     -0.84760   -12.6287855909000    -4.7041935636000   -12.5843898096000
         158      53       2      0.42380   -12.0604118333000    -4.0582536247600   -12.0747694930000
         159      53       2      0.42380   -13.0697411595000    -4.2306619330900   -13.3468371727000
         160      54       1     -0.84760    -6.6763290145600    -1.4236338343500   -13.6910429614000
         161      54       2      0.42380    -7.4367852039800    -1.5991951988400   -14.3162505999000
         162      54       2      0.42380    -7.0350872821000    -1.1797016141100   -12.7900493002000
         163      55       1     -0.84760     0.0474468085829    11.0001825947000    14.2392413277000
         164      55       2      0.42380    -0.0968248009298    11.5159400575000    15.0837411455000
         165      55       2      0.42380    -0.8352634299440    10.8121949120000    13.8085636455000
         166      56       1     -0.84760     1.8421714165400     1.0041072780000    10.4529996308000
         167      56       2      0.42380     0.8871184120410     1.1102797159100    10.1762304634000
         168      56       2      0.42380     2.0921317459200     1.7433442625100    11.0783383505000
         169      57       1     -0.84760     6.6117581549800   -13.0113186189000    10.8259050588000
         170      57       2      0.42380     7.5494523001200   -13.1105449449000    11.1588972906000
         171      57       2      0.42380     5.9798011900200   -13.0237355348000    11.6008090623000
         172      58       1     -0.84760    10.2220582333000    -9.0683833285300    13.8367190213000
         173      58       2      0.42380    10.6051267088000    -9.4342662103100    14.6848866108000
         174      58       2      0.42380     9.5035906171800    -9.6795272960100    13.5045935396000
         175      59       1     -0.84760     5.0254407976900    -8.5779356379600     5.6466401525300
         176      59       2      0.42380     4.2838254967100    -8.2376045007400     6.2247244564000
         177      59       2      0.42380     5.8882092511200    -8.1596217113400     5.9306191210500
         178      60       1     -0.84760    -5.8595294824400    13.4463038686000    13.5517479401000
         179      60       2      0.42380    -5.1068628816300    12.9227727458000    13.9510074441000
         180      60       2      0.42380    -6.7050067365700    12.9161199470000    13.6155697385000
         181      61       1     -0.84760     3.2675170951700     8.8393963888800    10.2598153183000
         182      61       2      0.42380     3.7065362767200     9.6338435664400     9.8401537400000
         183      61       2      0.42380     3.0517623655000     8.1657013490700     9.5530021251700
         184      62       1     -0.84760    -2.9904516984600   -13.7388026888000    16.1323537991000
         185      62       2      0.42380    -3.7299837834400   -14.2663209729000    15.7142428626000
         186      62       2      0.42380    -3.0554359039000   -12.7845432264000    15.8405217731000
         187      63       1     -0.84760    -3.8385320000900    -5.8435578326200     0.2013230329420
         188      63       2      0.42380    -4.4489281333900    -6.4963360292000     0.6499845830300
         189      63       2      0.42380    -4.0455804841600    -5.8113988437800    -0.7764789534950
         190      64       1     -0.84760     6.3682636578800    13.4783659040000    -1.4146516797300
         191      64       2      0.42380     6.0567965649600    12.5440568775000    -1.5880151502600
         192      64       2      0.42380     5.7344217629300    13.9298908808000    -0.7866631069510
         193      65       1     -0.84760     2.7405732772900     4.1081523961400   -15.9811537098000
         194      65       2      0.42380     2.0380768367700     4.2516769395400   -15.2840888229000
         195      65       2      0.42380     2.9883650693700     4.9862832302900   -16.3904035917000
         196      66       1     -0.84760    -8.6052676678500    -9.7372570081200    -1.9058662926800
         197      66       2      0.42380    -9.0436940270300    -9.6766153628100    -1.0091473186200
         198      66       2      0.42380    -9.2160581005300    -9.3595147665900    -2.6017440451000
         199      67       1     -0.84760    -6.7388025817600     1.7835785564500   -10.9434180818000
         200      67       2      0.42380    -7.3739869231800     1.1309609985600   -11.3564933480000
         201      67       2      0.42380    -6.2798597540800     2.3035963310900   -11.6638020037000
         202      68       1     -0.84760     9.1615810918000    -6.2720311564000    -7.8879192611400
         203      68       2      0.42380     9.1376555493600    -5.2956545392900    -7.6731722705200
         204      68       2      0.42380    10.0591545678000    -6.6436006363100    -7.6506473143200
         205      69       1     -0.84760    13.3648876674000    -6.9709601166400     8.3913339445300
         206      69       2      0.42380    13.5896266502000    -7.1443985901700     9.3501934157500
         207      69       2      0.42380    12.5079593550000    -7.4321421635600     8.1611492644700
         208      70       1     -0.84760    10.6941121643000    -3.3811153901700    -8.4598762085900
         209      70       2      0.42380    11.1154504622000    -4.2844759179500    -8.5399623844700
         210      70       2      0.42380    10.6887644860000    -2.9352852712000    -9.3549778270400
         211      71       1     -0.84760    -7.6308783669900    11.1127509938000    11.1966821346000
         212      71       2      0.42380    -6.8943868149500    10.7471041130000    11.7657889368000
         213      71       2      0.42380    -8.4979415744100    10.6912529834000    11.4622773557000
         214      72       1     -0.84760   -10.2425140678000   -12.7817466682000    -1.1745583962500
         215      72       2      0.42380    -9.6115891797100   -12.3343150123000    -1.8083869999600
         216      72       2      0.42380   -11.1835133693000   -12.5527601165000    -1.4237279642700
         217      73       1     -0.84760    -4.9221283473400   -14.2965632762000     7.9162085088600
         218      73       2      0.42380    -5.8315473571600   -13.9215977115000     8.0960914983000
         219      73       2      0.42380    -4.2391106998200   -13.7734911465000     8.4259951704400
         220      74       1     -0.84760    -4.0478031170900     9.7432032545200    -0.4084675677210
         221      74       2      0.42380    -4.6766857391600     8.9817770674200    -0.2511881690220
         222      74       2      0.42380    -4.2472351666700    10.4792810921000     0.2383834774610
         223      75       1     -0.84760     2.9732545001400    -4.4677236223400    12.7000009182000
         224      75       2      0.42380     3.6216777850000    -4.0453357647400    12.0666481402000
         225      75       2      0.42380     2.0592007240700    -4.0956160053300    12.5386267696000
         226      76       1     -0.84760    -9.0979203294100   -12.8569760015000     8.6168775211900
         227      76       2      0.42380    -8.4619251133500   -12.4307775344000     9.2602008861000
         228      76       2      0.42380    -9.4327127278200   -12.1684321815000     7.9735879611800
         229      77       1     -0.84760     6.6944563217300    14.1237064375000    -6.8401063247100
         230      77       2      0.42380     6.7916592868700    13.8396287627000    -7.7939676659000
         231      77       2      0.42380     5.9743784510000    14.8140119929000    -6.7696357611400
         232      78       1     -0.84760    -3.8222967992200    -7.4754021986900    -5.6910290960200
         233      78       2      0.42380    -3.2329173847000    -6.7716792385500    -5.2942849705300
         234      78       2      0.42380    -4.6404940107700    -7.5822793916400    -5.1261126520700
         235      79       1     -0.84760     3.9580753371000    13.1446790120000     0.4525724350120
         236      79       2      0.42380     3.6431590787300    13.6995844736000     1.2225774212800
         237      79       2      0.42380     3.1721843457000    12.7147706020000     0.0081018413796
         238      80       1     -0.84760    12.1032459213000   -14.1671302706000     4.6766951987100
         239      80       2      0.42380    11.4330380630000   -13.4439798851000     4.8436531172800
         240      80       2      0.42380    11.8742752991000   -14.6443776341000     3.8282805546700
         241      81       1     -0.84760    12.7551318616000   -14.8315443311000    10.3217843979000
         242      81       2      0.42380    12.2241891556000   -14.6282513645000     9.4991229775100
         243      81       2      0.42380    12.2754697861000    14.4805825657000    10.8665365317000
         244      82       1     -0.84760    -3.8246681690800    -7.1727421660200   -12.7056242958000
         245      82       2      0.42380    -4.0394612013800    -6.9959705189500   -11.7450954113000
         246      82       2      0.42380    -3.5719684572600    -6.3153204692200   -13.1539220646000
         247      83       1     -0.84760     1.7613461874500     4.7620377802300    14.8147257958000
         248      83       2      0.42380     1.8688164694000     3.8415723077700    14.4389686235000
         249      83       2      0.42380     1.1810674819200     5.3044135233100    14.2071855278000
         250      84       1     -0.84760    -1.9475868927200    -0.9145165248560    11.1186494911000
         251      84       2      0.42380    -2.4336154518900    -1.7859707974500    11.0527428112000
         252      84       2      0.42380    -1.2600306206100    -0.9702560198940    11.8426380831000
         253      85       1     -0.84760   -10.1275041238000    -2.8697418435100    -8.3421152696100
         254      85       2      0.42380    -9.9046813679100    -2.3176788455000    -7.5386375377100
         255      85       2      0.42380    -9.6197262976600    -3.7304876094100    -8.3063604693000
         256      86       1     -0.84760    -4.3267521955000     9.8814709526100    -4.4716875252400
         257      86       2      0.42380    -3.6049994049200     9.4316465378000    -3.9456353366500
         258      86       2      0.42380    -4.0755265995700     9.8936882682200    -5.4395389793200
         259      87       1     -0.84760    -6.0531064575100     7.3987181335200    -0.8833097258160
         260      87       2      0.42380    -5.6302870780000     7.4242696382700    -1.7891634076700
         261      87       2      0.42380    -6.8029626338000     8.0593068270800    -0.8467270412200
         262      88       1     -0.84760    -7.2794132015400     8.6495729967700    14.7165672204000
         263      88       2      0.42380    -6.8837865789700     9.4711191882000    14.3060292431000
         264      88       2      0.42380    -6.7294926980600     7.8532133458000    14.4647761440000
         265      89       1     -0.84760     6.8991688775800     7.5000653474200     6.5033347748600
         266      89       2      0.42380     7.3180886446700     6.5945064639100     6.4364816729100
         267      89       2      0.42380     7.5078371341200     8.1124736193700     7.0077939525100
         268      90       1     -0.84760    -1.7725120098700     1.0007978827100    -6.9205773286800
         269      90       2      0.42380    -2.6548178390000     1.0648665399200    -7.3868729763500
         270      90       2      0.42380    -1.7931190182000     0.2405878258610    -6.2712268680800
         271      91       1     -0.84760     6.7514927933300   -11.5622831033000   -11.7073192780000
         272      91       2      0.42380     6.4430973652900   -12.2767182373000   -12.3353914866000
         273      91       2      0.42380     6.1443229255900   -11.5316519108000   -10.9133378665000
         274      92       1     -0.84760   -11.7736673792000     0.2600754690850    -5.7223335097900
         275      92       2      0.42380   -12.1202017598000     0.5830623653870    -6.6030113100500
         276      92       2      0.42380   -10.7809352190000     0.3764809582290    -5.6917946782600
         277      93       1     -0.84760    -4.3114802080300    -1.3605604471600    -3.1649665138900
         278      93       2      0.42380    -3.9152356020100    -0.4446111539940    -3.1015070421700
         279      93       2      0.42380    -5.0862515963800    -1.4328059010000    -2.5368662908400
         280      94       1     -0.84760    -1.5498761635000     5.4818681212900    -6.3049730354400
         281      94       2      0.42380    -0.8960228490060     5.6109576555900    -5.5594452121800
         282      94       2      0.42380    -2.3922391479400     5.0817235324700    -5.9439897803000
         283      95       1     -0.84760    11.6216102117000    11.5947170509000    10.4187204030000
         284      95       2      0.42380    10.8834995219000    11.0828087095000    10.8582001633000
         285      95       2      0.42380    11.2536762774000    12.4356031401000    10.0218133548000
         286      96       1     -0.84760     8.6161441179400    -7.1122707331300   -13.0100035410000
         287      96       2      0.42380     8.3736142846600    -6.1460196526600   -13.0968259428000
         288      96       2      0.42380     9.5922486323600    -7.1941358005200   -12.8087124889000
         289      97       1     -0.84760     2.8242124553400    -6.5983305153700     5.7588729080800