LAMMPS Atom File

         600 atoms
         400 bonds
         200 angles
           0 dihedrals
           0 impropers

           2 atom types
           1 bond types
           1 angle types

          0.0 30.0000000000 xlo xhi
          0.0 29.5442325904 ylo yhi
          0.0 28.9492293782 zlo zhi
          5.2094453300 7.7645713531 1.2859043938 xy xz yz

Masses

           1 15.9994
           2 1.00794

Atoms

           1       1       1     -0.84760   -10.7360659776000    14.3219404614000    -6.2269019631100
           2       1       2      0.42380   -16.6103097003000   -14.6106520548000    -5.7980202582900
           3       1       2      0.42380   -11.1806341707000    13.8084140244000    -6.9608295619300
           4       2       1     -0.84760   -13.7716170991000    -8.7112365839900   -13.5020027738000
           5       2       2      0.42380   -13.4719395849000    -8.2476219041100   -14.3358221884000
           6       2       2      0.42380   -14.2239178753000    -8.0538401164200   -12.8992972966000
           7       3       1     -0.84760    -7.1821329692800     2.9515783960000     3.5752556745800
           8       3       2      0.42380    -6.4446332843700     2.8026990152300     4.2339886589800
           9       3       2      0.42380    -7.3400910728000     3.9331775170600     3.4679598075700
          10       4       1     -0.84760     0.2051825518640    14.2547617116000    12.2414700887000
          11       4       2      0.42380    -0.2355195397310    15.0210684197000    11.7739706817000
          12       4       2      0.42380     1.0853062886100    14.0614349988000    11.8078723602000
          13       5       1     -0.84760    10.3451241396000    -9.7458043316100    -9.4385720067900
          14       5       2      0.42380   -19.0154059506000   -10.3179728644000    -8.9250533560400
          15       5       2      0.42380     9.6003463741400    -9.4561113823800    -8.8374197172700
          16       6       1     -0.84760   -15.4179428250000    13.9135394973000   -11.2839272640000
          17       6       2      0.42380   -14.8125068026000    13.5941553774000   -12.0129272687000
          18       6       2      0.42380     8.6028733511200   -15.1332020989000   -11.6839339662000
          19       7       1     -0.84760     6.1398731524300    -8.1810443024000    -7.0388468969200
          20       7       2      0.42380     6.4460338940600    -7.6678033603500    -6.2370680398200
          21       7       2      0.42380     6.6773238042500    -7.9058236934200    -7.8359669714700
          22       8       1     -0.84760    -7.4919816682900     7.6175775300500    -9.9976334997900
          23       8       2      0.42380    -8.3213618684200     7.0659659147300   -10.0862512716000
          24       8       2      0.42380    -7.3465793422300     8.1383541216900   -10.8388527965000
          25       9       1     -0.84760    14.4378521652000     3.3205975613800    10.1251883549000
          26       9       2      0.42380    14.5813639760000     4.1083043926300     9.5260871045600
          27       9       2      0.42380    14.0747802505000     2.5572406207800     9.5908991392000
          28      10       1     -0.84760    -4.6688025372500    -6.4902914855800    -9.8961377675200
          29      10       2      0.42380    -3.7570290072800    -6.2296410414100    -9.5787572766100
          30      10       2      0.42380    -5.3592893386900    -5.9910083697900    -9.3727408365700
          31      11       1     -0.84760     1.2996218068700    -4.4053462203400     1.4730288505600
          32      11       2      0.42380     1.7849315376700    -3.6372165584400     1.8907025122800
          33      11       2      0.42380     1.0571376902400    -5.0702295811700     2.1795212919000
          34      12       1     -0.84760    16.6807339949000     4.3649460351100    14.3177025368000
          35      12       2      0.42380    16.3335058795000     4.1896465528000    13.3964519046000
          36      12       2      0.42380     8.1489811534600     3.1495938398800   -13.9939886455000
          37      13       1     -0.84760     0.1465189945630     7.3316678132600     5.5342497573900
          38      13       2      0.42380     0.2162002458810     8.2306668451000     5.1018780839700
          39      13       2      0.42380     0.6755410014610     6.6664766136200     5.0073186573900
          40      14       1     -0.84760    -9.6248714674100   -12.5835198603000    -9.3116860289500
          41      14       2      0.42380    -9.2882906186600   -12.8237219009000   -10.2221893578000
          42      14       2      0.42380    -9.1861069083200   -13.1680723660000    -8.6292023077700
          43      15       1     -0.84760     5.0688029404200    14.2886865335000    -7.4157568072400
          44      15       2      0.42380     5.0840898191500    14.3095476538000    -6.4160913006800
          45      15       2      0.42380     4.1210153791000    14.2871215773000    -7.7346553640300
          46      16       1     -0.84760   -15.4476274837000   -12.7659363169000     3.9777310297400
          47      16       2      0.42380   -15.7627152441000   -12.6004715448000     4.9122582430600
          48      16       2      0.42380   -14.5006650709000   -13.0866940536000     3.9971388370700
          49      17       1     -0.84760    -8.6296717270200    -1.2746399225700    10.5390030111000
          50      17       2      0.42380    -7.8050744908700    -1.6216243369200    10.9858152920000
          51      17       2      0.42380    -8.4012922083300    -0.4623080607450    10.0023842063000
          52      18       1     -0.84760   -10.3041022229000    -8.1309925970500     2.1645410810000
          53      18       2      0.42380    -9.9553615588700    -7.2510671854800     1.8418783788700
          54      18       2      0.42380   -10.7031042133000    -8.6330208640400     1.3972308238000
          55      19       1     -0.84760     0.2242557290940    10.3576814072000     3.3453571270400
          56      19       2      0.42380    -0.1887915071240    11.2660226804000     3.4109933362800
          57      19       2      0.42380     1.1944448454900    10.4481514070000     3.1205277305000
          58      20       1     -0.84760    10.6663844347000     0.5695559221190    -0.9469888161140
          59      20       2      0.42380    11.2922077772000    -0.1969116115990    -1.0914625635800
          60      20       2      0.42380     9.8228786959500     0.2363001989280    -0.5257540933460
          61      21       1     -0.84760    -5.6870611670200   -11.5232592396000     2.6332098879600
          62      21       2      0.42380    -6.0943669356800   -11.3626848437000     1.7341448879800
          63      21       2      0.42380    -4.8296927725200   -12.0265942988000     2.5256308269800
          64      22       1     -0.84760    -7.7854584795400    10.5312460935000    -8.1050317609500
          65      22       2      0.42380    -8.5490838742800    10.9511614033000    -8.5954880680000
          66      22       2      0.42380    -7.4299836102700     9.7626651898400    -8.6369349587000
          67      23       1     -0.84760    -9.0375657947600   -14.2795524336000    -7.0219361809500
          68      23       2      0.42380    -8.0717245564000   -14.4758756895000    -6.8527975351900
          69      23       2      0.42380    -9.5030190564600   -14.1213959121000    -6.1511091166700
          70      24       1     -0.84760    15.8613749756000   -13.3930071908000    13.8557950588000
          71      24       2      0.42380     7.5682875529700   -14.6003303121000   -14.2481558163000
          72      24       2      0.42380    15.2924905591000   -13.8051228025000    13.1440849751000
          73      25       1     -0.84760    16.5064444178000    12.0370092446000    -1.6758112256900
          74      25       2      0.42380   -12.5958277586000    11.7975823081000    -2.0456213078900
          75      25       2      0.42380    16.4801953124000    13.0156283509000    -1.4718121342600
          76      26       1     -0.84760    13.7075958502000     1.1841714307300     7.4852351402600
          77      26       2      0.42380    14.3710541550000     0.4371652743920     7.4427512594200
          78      26       2      0.42380    13.0992920739000     1.1351548752500     6.6930458364800
          79      27       1     -0.84760     1.7847914873800    -7.3282214602000    -4.4584905385100
          80      27       2      0.42380     2.4046857013800    -7.2808672417200    -3.6752353173700
          81      27       2      0.42380     1.5808913471600    -8.2852262741000    -4.6648070889900
          82      28       1     -0.84760     1.6391323186600    -9.7918673719200    -7.1561426822300
          83      28       2      0.42380     1.8925598786100   -10.4907215017000    -7.8250054313800
          84      28       2      0.42380     2.3808100184000    -9.1263957556300    -7.0721086556800
          85      29       1     -0.84760   -10.5458395368000    -4.4027548184100    -8.8219150278400
          86      29       2      0.42380    -9.8967912444400    -3.7844608926800    -8.3786894243600
          87      29       2      0.42380   -11.2153225773000    -4.7204100315500    -8.1504333646100
          88      30       1     -0.84760   -15.0011409545000    -6.3777182294500    -0.5964593155980
          89      30       2      0.42380   -14.8548799337000    -5.4968273028100    -1.0466136104200
          90      30       2      0.42380   -14.7651931984000    -6.3002630532000     0.3722147018360
          91      31       1     -0.84760    -1.9160230962400    -7.8132081065500     6.8794892155500
          92      31       2      0.42380    -2.6521807535700    -8.4821695000300     6.9822635196900
          93      31       2      0.42380    -2.3077590118300    -6.9133113220500     6.6878417536100
          94      32       1     -0.84760     0.1657959116380     0.7836260285180     5.9022601240400
          95      32       2      0.42380     0.3663363083270     0.2987254963760     6.7535268408900
          96      32       2      0.42380     0.8953918256960     0.6110314058640     5.2405193149400
          97      33       1     -0.84760    10.3335692431000   -13.0629584674000    -0.0093111540628
          98      33       2      0.42380    10.0827260015000   -13.6651914150000    -0.7671984444650
          99      33       2      0.42380    11.3184914799000   -12.8914294946000    -0.0318055779840
         100      34       1     -0.84760    -9.0776510792500    -2.7107360424100    12.9755382587000
         101      34       2      0.42380    -9.0884614979300    -2.0499073660400    12.2250793355000
         102      34       2      0.42380    -9.4700971191200    -3.5759489630300    12.6634602111000
         103      35       1     -0.84760     5.2973925751000   -11.1649688515000     4.3679025419300
         104      35       2      0.42380     5.7113250889300   -11.8014791429000     3.7171226075500
         105      35       2      0.42380     5.7764512132000   -11.2251239143000     5.2436217832900
         106      36       1     -0.84760   -14.0529992399000     4.3486200805000    -3.6047592342800
         107      36       2      0.42380   -14.6341311738000     3.7038033888200    -4.1012439868000
         108      36       2      0.42380   -13.5246292617000     4.8917761081300    -4.2572978889500
         109      37       1     -0.84760     3.4755188075900     0.2713292291440     6.3161218205200
         110      37       2      0.42380     4.2181621842000     0.3192366055400     6.9840931510800
         111      37       2      0.42380     3.8295515256100    -0.0779802723813     5.4485714146500
         112      38       1     -0.84760     2.1737753963900     4.0529901900500    10.7520945931000
         113      38       2      0.42380     2.9354791898400     3.4934522884200    10.4254071773000
         114      38       2      0.42380     2.2003632821000     4.9465431787200    10.3039248253000
         115      39       1     -0.84760    -3.1854020586500    12.8076044714000    -9.0135900606900
         116      39       2      0.42380    -3.3290132389700    13.7762069850000    -8.8106491838500
         117      39       2      0.42380    -4.0703877887800    12.3561619846000    -9.1276073339900
         118      40       1     -0.84760    13.5913119071000    -5.0181649188200     5.4159832070500
         119      40       2      0.42380    12.8194785672000    -5.6343182560300     5.5729174625500
         120      40       2      0.42380    13.9378754817000    -5.1479518899800     4.4869788847500
         121      41       1     -0.84760    13.4660170691000    -2.1716623893100    -2.6407552402800
         122      41       2      0.42380    13.9050362507000    -1.3772152117500    -3.0604168185700
         123      41       2      0.42380    13.2502623395000    -2.8453574291200    -3.3475684333900
         124      42       1     -0.84760     7.4785899470700    11.4950250978000     1.5296481275800
         125      42       2      0.42380     6.8825040757800    10.7125239652000     1.7095748111000
         126      42       2      0.42380     6.9290411703500    12.2651266367000     1.2057040554800
         127      43       1     -0.84760    -5.8453535412500    -5.5357422159600     1.7362886182500
         128      43       2      0.42380    -5.9112807013000    -4.5697239023200     1.4863641751100
         129      43       2      0.42380    -6.6607795268600    -5.8036782017600     2.2494072882400
         130      44       1     -0.84760   -12.1853362456000    -3.5702905094800    -0.0684301313384
         131      44       2      0.42380   -12.6237626048000    -3.5096488641700     0.8282888427170
         132      44       2      0.42380   -12.7961266783000    -3.1925482679400    -0.7643078837570
         133      45       1     -0.84760     2.7112057244100    12.1547384761000     1.5156165366500
         134      45       2      0.42380     3.2139540064600    11.2926751752000     1.4516553743300
         135      45       2      0.42380     3.3027710271700    12.8569920826000     1.9117104203400
         136      46       1     -0.84760    -5.8328666288900    -9.8086771034300    10.0625528680000
         137      46       2      0.42380    -5.3865984299000   -10.6688522231000     9.8156855797400
         138      46       2      0.42380    -6.8210093816000    -9.9506320484900    10.1210566614000
         139      47       1     -0.84760     7.4498719855000     9.2266816043500   -12.2705001108000
         140      47       2      0.42380     8.3166964680000     8.7387642219600   -12.1677774527000
         141      47       2      0.42380     7.5973701285700    10.0595479774000   -12.8039585463000
         142      48       1     -0.84760     5.6866936609400    -2.7705978978600     4.9580436740300
         143      48       2      0.42380     6.0714250477200    -2.0896562839800     5.5811811215600
         144      48       2      0.42380     5.4809888162300    -3.6077126371600     5.4649208091500
         145      49       1     -0.84760   -12.9895591976000    -6.4627064676600     9.4895333921000
         146      49       2      0.42380    16.5390062549000    -6.1322578659600    10.3071844112000
         147      49       2      0.42380   -13.5993616491000    -6.3888222672200     8.7004313106100
         148      50       1     -0.84760     2.1282777964400    -2.6809807108000    -5.0010514667100
         149      50       2      0.42380     2.5967836149800    -2.7656045470000    -5.8804496156400
         150      50       2      0.42380     2.7669712294200    -2.8929458047400    -4.2613613304900
         151      51       1     -0.84760   -10.0677858734000    -3.1864633102900    -2.2065783021100
         152      51       2      0.42380    -9.7561144701800    -2.6692218656400    -1.4095072736800
         153      51       2      0.42380   -10.4680662701000    -4.0522886439200    -1.9063748783400
         154      52       1     -0.84760   -13.9121983277000    -5.0980922004500   -10.4766609882000
         155      52       2      0.42380   -13.2447859179000    -4.3590847279100   -10.3848534138000
         156      52       2      0.42380   -14.2109869562000    -5.1609802106500   -11.4289059428000
         157      53       1     -0.84760   -16.7733081557000    -3.5860562691500   -10.4172369365000
         158      53       2      0.42380   -17.0091471073000    -4.0234293452800   -11.2850415119000
         159      53       2      0.42380   -16.1322071989000    -2.8371243294900   -10.5848391828000
         160      54       1     -0.84760    -6.6993485444200    -5.3274510415800    -8.1791239511800
         161      54       2      0.42380    -7.2302912504800    -5.1241580749400    -9.0017853715800
         162      54       2      0.42380    -7.1790106199500    -6.0153241447400    -7.6343718174200
         163      55       1     -0.84760     3.4350687113300    11.2078740207000    12.3148471577000
         164      55       2      0.42380     3.7942268771300    11.0508095628000    11.3948818497000
         165      55       2      0.42380     2.4933224485000    11.5384727701000    12.2530536035000
         166      56       1     -0.84760    -2.9094927160100     6.1776301705400     4.2887257555500
         167      56       2      0.42380    -2.6763194605900     6.4893879715000     5.2098323218600
         168      56       2      0.42380    -2.9334964913300     6.9611046631600     3.6677655811500
         169      57       1     -0.84760    -2.1046960494600   -12.6194750498000    11.5303100794000
         170      57       2      0.42380    -1.8818732935300   -12.0674120518000    12.3337878113000
         171      57       2      0.42380    -1.5969182232800   -13.4802208157000    11.5660648797000
         172      58       1     -0.84760    10.8967383206000    -9.2996881823000    12.9978861327000
         173      58       2      0.42380    10.4852834621000    -9.1395274095100    13.8951338278000
         174      58       2      0.42380    11.6165559692000    -8.6246658837200    12.8359989831000
         175      59       1     -0.84760     4.9901751416500    -7.7808257837300     4.6384004093400
         176      59       2      0.42380     4.1108067864200    -7.9311337758500     4.1866053193700
         177      59       2      0.42380     5.7240742527900    -8.1571036697000     4.0728855579100
         178      60       1     -0.84760    -5.8366932806600    13.4325110601000    10.7225337809000
         179      60       2      0.42380    -5.3100079887600    14.0725010438000    10.1630559672000
         180      60       2      0.42380    -6.3766328783600    12.8364899582000    10.1282072066000
         181      61       1     -0.84760     5.1832969772700    13.5518269109000     8.7917493181300
         182      61       2      0.42380     5.0221011843400    13.8394035040000     7.8476541854900
         183      61       2      0.42380     5.9601997814200    12.9228661410000     8.8205656817500
         184      62       1     -0.84760    -8.2983035607600   -13.8757081092000    11.0311056479000
         185      62       2      0.42380    -8.9135066346700   -13.2729061539000    11.5391951877000
         186      62       2      0.42380    -3.2857549025700    14.7166534345000    11.2659954329000
         187      63       1     -0.84760    -4.1152560608100    -8.0618319839800     1.5854564570700
         188      63       2      0.42380    -4.7810229654000    -8.7519594984000     1.8691436837600
         189      63       2      0.42380    -4.5432178390000    -7.1582328544400     1.6043596182800
         190      64       1     -0.84760    10.3482285879000    14.5318812551000     1.2411735623100
         191      64       2      0.42380     4.6028533299500   -14.1710855932000     1.3122443979100
         192      64       2      0.42380     9.7354430485400    13.7423856390000     1.2756779803600
         193      65       1     -0.84760     4.9479371604400     3.4547633970100   -13.3045091697000
         194      65       2      0.42380     4.0338785870700     3.5636744825400   -13.6951948489000
         195      65       2      0.42380     4.9616566807200     3.8317121703200   -12.3783766754000
         196      66       1     -0.84760   -10.9157629438000   -12.4641603072000    -1.6278272663400
         197      66       2      0.42380   -11.4185034454000   -11.6410168875000    -1.3638445043800
         198      66       2      0.42380   -10.3939859450000   -12.2830604771000    -2.4614648465200
         199      67       1     -0.84760     0.3464684125500     4.9856058495600     3.4446496137200
         200      67       2      0.42380    -0.3607336755610     5.2374103015000     2.7839986282900
         201      67       2      0.42380     0.1706831386710     4.0620006959300     3.7853152234900
         202      68       1     -0.84760    -7.9788347786100    -0.3716360964210    -6.9689465385400
         203      68       2      0.42380    -8.5532649628400    -1.0171749995500    -6.4656479313500
         204      68       2      0.42380    -7.6476211111700     0.3363086388420    -6.3451583065900
         205      69       1     -0.84760     9.3561974025700    -5.4085738955000    -5.5104954355000
         206      69       2      0.42380     8.3830206103400    -5.1826273777200    -5.5537978854700
         207      69       2      0.42380     9.8910140506100    -4.5666075969200    -5.4393343152500
         208      70       1     -0.84760    11.1395568976000    -6.8233565904100     4.0183831538100
         209      70       2      0.42380    11.8504279686000    -7.3605798820400     3.5644520407800
         210      70       2      0.42380    10.3104868882000    -7.3753407360800     4.1075819343800
         211      71       1     -0.84760    11.9248937116000    -3.6425916267600    -7.0429521319900
         212      71       2      0.42380   -17.6537679905000    -4.5459521545400    -7.1230383078700
         213      71       2      0.42380    11.9195460334000    -3.1967615077900    -7.9380537504400
         214      72       1     -0.84760    -8.0410172782900    11.9277636923000     8.9394847334900
         215      72       2      0.42380    -8.1854890579600    11.1122470830000     8.3790736657600
         216      72       2      0.42380    -8.7539446666100    11.9823578797000     9.6385941767800
         217      73       1     -0.84760   -13.9926196766000   -13.6151326045000    -6.4051031494900
         218      73       2      0.42380   -14.3803368344000   -13.1486916553000    -7.2001555039800
         219      73       2      0.42380   -14.4546426079000   -14.4924438904000    -6.2752581702200
         220      74       1     -0.84760    -4.9502347431600   -13.6611731700000     4.9686567416600
         221      74       2      0.42380    -4.5307246563700   -12.7644219149000     5.1095413523300
         222      74       2      0.42380    -5.6335573234200   -13.5989095880000     4.2411998716900
         223      75       1     -0.84760    -6.4958009803000    13.9564115566000    -1.2754761730900
         224      75       2      0.42380    -5.9303389176500    13.1792694351000    -1.5517057492200
         225      75       2      0.42380   -11.1970671167000   -14.7384640341000    -1.4181176618500
         226      76       1     -0.84760    -1.5612595837600    -2.0439868351500     9.2059342208200
         227      76       2      0.42380    -1.8001490700300    -1.0735958134500     9.2416144443300
         228      76       2      0.42380    -0.5673886157620    -2.1444930951700     9.2519667165900
         229      77       1     -0.84760    14.3670794876000   -12.7379754289000     7.8138932795600
         230      77       2      0.42380    13.8156389422000   -13.3092762363000     7.2060045459600
         231      77       2      0.42380    14.8147694148000   -13.3142171301000     8.4976470589500
         232      78       1     -0.84760    -3.8228104129500    -7.6296600973800    -4.8522173921300
         233      78       2      0.42380    -3.2284855169100    -7.9289619475000    -5.5986732317200
         234      78       2      0.42380    -3.9704491170900    -6.6428696416000    -4.9189062923600
         235      79       1     -0.84760     3.7591962826000     9.5117693391900     1.5059551216600
         236      79       2      0.42380     2.8697426821900     9.1523020468600     1.2237219583500
         237      79       2      0.42380     4.3863578555700     9.4986366773600     0.7271766585590
         238      80       1     -0.84760     7.9908573942100   -12.1385226521000     2.7174996409600
         239      80       2      0.42380     7.4532276944000   -11.4847553459000     2.1850124437500
         240      80       2      0.42380     8.5198648870200   -12.7181592490000     2.0976831454300
         241      81       1     -0.84760    11.7479765683000   -14.0386671646000     9.5768585391500
         242      81       2      0.42380    16.1839197267000    14.9856299358000     9.2144203007200
         243      81       2      0.42380    11.8049604856000   -13.1565022678000     9.1093781353400
         244      82       1     -0.84760    -1.8216118324000    -7.1734694209700   -11.6419161978000
         245      82       2      0.42380    -1.8503410485300    -6.7626461654100   -12.5531784459000
         246      82       2      0.42380    -2.6541076775400    -6.9343998257500   -11.1421198428000
         247      83       1     -0.84760     6.4051938237500     2.8646160997600    13.8377605560000
         248      83       2      0.42380     7.3782197837400     2.9194185744400    14.0618524344000
         249      83       2      0.42380     6.2478558164700     2.0922037952100    13.2224362649000
         250      84       1     -0.84760    -3.5709423918500     0.7246198448920     7.1635726919200
         251      84       2      0.42380    -3.4450379364800     1.6889136203400     7.3965653586300
         252      84       2      0.42380    -2.8471641898400     0.4358921277480     6.5368499305400
         253      85       1     -0.84760    -2.7224575328200     8.7099971775800    -3.3657785415200
         254      85       2      0.42380    -3.0090635963200     9.6271112456500    -3.6428322375800
         255      85       2      0.42380    -3.5203862891000     8.1083831694200    -3.3287611796200
         256      86       1     -0.84760    -6.5123839752100     5.0142248298700    -0.3713102106590
         257      86       2      0.42380    -7.3534964374100     5.5207451954000    -0.1816606780000
         258      86       2      0.42380    -6.7414333901600     4.1185462772000    -0.7524877228580
         259      87       1     -0.84760    11.7030239103000    10.8069719774000   -13.4684697935000
         260      87       2      0.42380    11.3719916154000    11.2787427776000   -12.6512489348000
         261      87       2      0.42380    12.6985632455000    10.8866177774000   -13.5190462553000
         262      88       1     -0.84760     8.8728701157300     7.1712101350000     5.0892864823300
         263      88       2      0.42380     9.6142984177700     7.0877995033400     5.7551143425600
         264      88       2      0.42380     9.2183947188400     7.6078009201100     4.2586233526600
         265      89       1     -0.84760    -1.5426744528600     1.0037435723500    -6.4397732437200
         266      89       2      0.42380    -2.1845026201500     1.6714682959100    -6.0626786969200
         267      89       2      0.42380    -1.1608409137400     1.3544975980200    -7.2948608192700
         268      90       1     -0.84760     7.4343657456300   -14.5587530942000    -7.8750349759000
         269      90       2      0.42380     7.4997095810900   -14.6186380258000    -8.8710992198700
         270      90       2      0.42380     7.2235960303300   -13.6176027571000    -7.6108150483700
         271      91       1     -0.84760   -12.6107758338000     0.0445146404188    -4.7639137972000
         272      91       2      0.42380   -13.2192184688000     0.5951179820160    -5.3354324058600
         273      91       2      0.42380   -13.1237490396000    -0.7175191363790    -4.3687391356700
         274      92       1     -0.84760    -8.2983471690000    -2.0787994690700    -4.0913808342500
         275      92       2      0.42380    -8.2931573501300    -1.2970408502000    -3.4678212720500
         276      92       2      0.42380    -8.8754384428600    -2.8027755357400    -3.7134597888800
         277      93       1     -0.84760    -1.4129987425900     5.4145856273500    -3.8222999728100
         278      93       2      0.42380    -1.5248716279200     6.4082657506600    -3.8314798453300
         279      93       2      0.42380    -1.6677450056100     5.0587787865500    -2.9231304484600
         280      94       1     -0.84760    14.5696779817000    12.6878948480000    10.7039188853000
         281      94       2      0.42380    15.4473104555000    13.1077066672000    10.9352612230000
         282      94       2      0.42380    14.0035470367000    12.6245486961000    11.5257966244000
         283      95       1     -0.84760     8.8768639210900    -9.2903602117700   -11.6638012774000
         284      95       2      0.42380     9.0936947226000    -9.0608291890500   -12.6126426304000
         285      95       2      0.42380     9.6894438982200    -9.1609077154800   -11.0955092469000
         286      96       1     -0.84760     0.4617544700080    -5.9834543729600     3.6806463517800
         287      96       2      0.42380    -0.0704325659558    -5.6745063804300     4.4688900302500
         288      96       2      0.42380     0.2871454311060    -6.9550144474400     3.5207004070900
         289      97       1     -0.84760    -6.8838319234800    -9.9559143085100    -5.0363702283300