LAMMPS Atom File

         900 atoms
         600 bonds
         300 angles
           0 dihedrals
           0 impropers

           2 atom types
           1 bond types
           1 angle types

         0.0  20.0 xlo xhi
         0.0  20.0 ylo yhi
         0.0  20.0 zlo zhi

Masses

         1   15.9994
         2   1.00794

Atoms

       1    1  1  -0.84760   9.739221734020  -2.631726705440   2.071229049820
       2    1  2   0.42380   9.980362862200  -1.852129594420   1.493233114890
       3    1  2   0.42380   9.027469676830  -3.171965483130   1.622284652190
       4    2  1  -0.84760  -2.330563455900   2.033275589500  -6.841760177870
       5    2  2   0.42380  -2.385912207520   1.065562958060  -6.595856174950
       6    2  2   0.42380  -3.092422972300   2.527638936140  -6.423221101120
       7    3  1  -0.84760   9.756451761590  -6.645779109090  -7.219773963730
       8    3  2   0.42380  -9.303645002700  -6.347196823830  -7.385395600110
       9    3  2   0.42380   9.335744913110  -6.055591917720  -6.530800214750
      10    4  1  -0.84760  -7.041210542160   9.675879816520   2.986146124020
      11    4  2   0.42380  -6.394662886270  -9.660444555090   3.362325321920
      12    4  2   0.42380  -6.597398004090   9.154344486700   2.257427158440
      13    5  1  -0.84760   4.585516488760   8.844692256010  -6.587403523410
      14    5  2   0.42380   4.131405791020   9.071662715720  -5.725853823960
      15    5  2   0.42380   5.425603551230   9.380409504550  -6.672613599720
      16    6  1  -0.84760   4.542728107850  -7.477762940110   6.266164861370
      17    6  2   0.42380   5.449403831340  -7.056036062600   6.275415440720
      18    6  2   0.42380   3.913849394030  -6.928145209770   6.816102961340
      19    7  1  -0.84760  -1.791380218380   0.898617330798  -1.681864077800
      20    7  2   0.42380  -2.665621977100   0.488969085041  -1.421307630840
      21    7  2   0.42380  -1.954167617580   1.788110061970  -2.108833566000
      22    8  1  -0.84760  -3.340748572020  -7.872344616570  -0.256304540370
      23    8  2   0.42380  -3.426859125270  -7.926096296710   0.738529983307
      24    8  2   0.42380  -4.251050262100  -7.825839000420  -0.667629303418
      25    9  1  -0.84760   2.958523818010  -9.305341098210  -0.322902609566
      26    9  2   0.42380   3.460341758800   9.863936846480  -0.563899748801
      27    9  2   0.42380   3.266397003410  -8.550218026070  -0.901697260227
      28   10  1  -0.84760  -9.586912201560   1.426989814520   2.972122102940
      29   10  2   0.42380  -9.159465668770   2.157377382150   2.439371258130
      30   10  2   0.42380  -8.928835497100   1.068460543840   3.634233734860
      31   11  1  -0.84760   9.202137231670   6.290026378350  -5.576086709080
      32   11  2   0.42380   8.531692913740   6.821016063620  -6.094309026910
      33   11  2   0.42380   9.027359773280   5.314124132790  -5.706729914610
      34   12  1  -0.84760   9.590602045960  -4.120903459680   7.862354827880
      35   12  2   0.42380  -9.873904843270  -3.426055059690   8.342389023900
      36   12  2   0.42380  -9.792804360600  -4.738304295790   7.373858616940
      37   13  1  -0.84760   9.687548602120   7.704149123460   2.672164160800
      38   13  2   0.42380  -9.697261173910   7.015261387470   2.288791397620
      39   13  2   0.42380  -9.925697125160   8.059889264640   3.522969711140
      40   14  1  -0.84760   1.691200192810   5.248210915100  -6.052187950100
      41   14  2   0.42380   1.866088819890   5.778341683520  -5.222504072650
      42   14  2   0.42380   1.919949681450   5.799606037990  -6.854457910830
      43   15  1  -0.84760  -2.207339087940  -5.913840846020  -8.173802701270
      44   15  2   0.42380  -1.559645506470  -6.334093597160  -7.538286651370
      45   15  2   0.42380  -2.976242170610  -5.531176830470  -7.661595418380
      46   16  1  -0.84760   1.623282543360  -8.872389025360  -6.060958203550
      47   16  2   0.42380   1.381957957260  -9.702976258280  -5.559074459380
      48   16  2   0.42380   2.387188211760  -8.416845678260  -5.603871353290
      49   17  1  -0.84760   8.974885102980  -1.364960454330   4.542367839320
      50   17  2   0.42380   8.018221875880  -1.098149428430   4.659018370230
      51   17  2   0.42380   9.126200044050  -1.659065447830   3.598648579470
      52   18  1  -0.84760   3.605594155650  -7.616011279080   3.760186768310
      53   18  2   0.42380   3.599857507460  -7.720157166200   4.754732254980
      54   18  2   0.42380   2.937931078790  -8.241032868080   3.355743905720
      55   19  1  -0.84760   2.485720005470   1.937204142500  -7.690988572260
      56   19  2   0.42380   2.942723310350   2.815210584230  -7.833300439660
      57   19  2   0.42380   1.831093942660   2.020102481670  -6.939594811800
      58   20  1  -0.84760  -2.050543985650  -5.250158257220  -0.416677525409
      59   20  2   0.42380  -2.169271384480  -5.838789247600   0.382958242880
      60   20  2   0.42380  -1.548437975350  -5.746876881250  -1.124604190370
      61   21  1  -0.84760   0.205749451609   4.271698510680   1.042288573350
      62   21  2   0.42380   0.271149677965   3.627986067180   1.804756343470
      63   21  2   0.42380  -0.447251746619   4.993772467630   1.270758781070
      64   22  1  -0.84760  -8.809712900140  -4.266683013590  -0.417147193936
      65   22  2   0.42380  -8.387324385160  -4.724494476960  -1.199449313590
      66   22  2   0.42380  -9.591441917850  -4.803164351240  -0.099204561958
      67   23  1  -0.84760   0.988007266412  -8.068785752250   9.387981749080
      68   23  2   0.42380   0.759241710289  -8.861849543990   9.952531253160
      69   23  2   0.42380   0.901140282173  -7.235157628000   9.933434109520
      70   24  1  -0.84760   1.438361160720   6.396125014160  -3.461976124350
      71   24  2   0.42380   1.004795208240   7.253405804330  -3.739627365400
      72   24  2   0.42380   2.423929740490   6.454281841970  -3.620948945740
      73   25  1  -0.84760  -6.136505407220   8.714413384580   0.679655936726
      74   25  2   0.42380  -6.260019004570   9.246077804800  -0.158244615572
      75   25  2   0.42380  -5.306599731310   8.161614752180   0.604354933350
      76   26  1  -0.84760   0.790862469540  -3.046115793100  -9.223672831260
      77   26  2   0.42380   1.282178436190  -2.253306524860  -8.863031617450
      78   26  2   0.42380  -0.193634751322  -2.876168636960  -9.180277137540
      79   27  1  -0.84760  -7.699246508080   0.751757054369   4.959186667270
      80   27  2   0.42380  -6.861969962860   0.909890689908   4.435773121270
      81   27  2   0.42380  -7.734940465690  -0.204345103587   5.250038184280
      82   28  1  -0.84760   8.018112560660   6.977250837690   9.260612266070
      83   28  2   0.42380   8.277508284290   7.466764058910   8.428091596770
      84   28  2   0.42380   7.269020505910   6.346876218290   9.056923943600
      85   29  1  -0.84760  -3.047894689410   7.549908787280   7.848573898150
      86   29  2   0.42380  -2.762936016000   8.095979284650   7.060788669580
      87   29  2   0.42380  -2.390528599020   7.669779970130   8.592550189930
      88   30  1  -0.84760   8.850739348970   4.026601539320   9.902225712250
      89   30  2   0.42380   9.581148139280   4.709439825500   9.886900113960
      90   30  2   0.42380   8.001839038590   4.439094790580   9.571744879690
      91   31  1  -0.84760  -3.012711234660   5.310576978970  -5.716664523160
      92   31  2   0.42380  -3.130323642970   6.112926882220  -6.301815746490
      93   31  2   0.42380  -3.726278063370   4.640771319990  -5.922048943620
      94   32  1  -0.84760   8.068050411180   3.341923228480   0.279914636541
      95   32  2   0.42380   8.923658848520   3.701738944880  -0.092196707257
      96   32  2   0.42380   7.726120983990   3.960369903850   0.987451191465
      97   33  1  -0.84760  -2.379746350130   9.124174885640  -6.691227944600
      98   33  2   0.42380  -2.575333383150   9.165207276850  -5.711400380490
      99   33  2   0.42380  -2.341982482470  -9.948154662440  -7.062713372210
     100   34  1  -0.84760  -7.762050720040  -0.249688363070  -7.131020741440
     101   34  2   0.42380  -8.534197849430  -0.862165163228  -6.961725201500
     102   34  2   0.42380  -7.213624506750  -0.166882842004  -6.298931843390
     103   35  1  -0.84760   7.300697646350  -7.409969684140  -0.648695744757
     104   35  2   0.42380   7.094010210190  -8.327710943360  -0.309533121739
     105   35  2   0.42380   6.560944331240  -6.786578085450  -0.395421293881
     106   36  1  -0.84760  -9.141324355010   9.728056073450  -8.351116123310
     107   36  2   0.42380  -9.109926580160  -9.753575788820  -9.205697104560
     108   36  2   0.42380  -9.918815002640   9.099473874970  -8.370933101140
     109   37  1  -0.84760  -3.472347105080  -1.525497308290   4.615916129160
     110   37  2   0.42380  -3.136826066230  -2.382023254200   5.008075454540
     111   37  2   0.42380  -2.700783918530  -0.994537291560   4.265528187330
     112   38  1  -0.84760  -0.620467112785   7.972818257880  -8.272257734710
     113   38  2   0.42380  -0.880173468440   7.008867439390  -8.330149257130
     114   38  2   0.42380  -1.285195567330   8.463873265530  -7.709229261910
     115   39  1  -0.84760  -4.249777173050   1.448261347980  -3.366292783060
     116   39  2   0.42380  -4.838797116530   2.072656313470  -2.853275791880
     117   39  2   0.42380  -3.711911277510   1.967509058020  -4.030432899330
     118   40  1  -0.84760  -5.561197685430   1.872179161900   0.921988262186
     119   40  2   0.42380  -4.902469741290   2.134168124580   1.627282015910
     120   40  2   0.42380  -6.086477904740   1.080541321800   1.234062326050
     121   41  1  -0.84760  -7.748872026360  -6.085315892480  -2.093049009020
     122   41  2   0.42380  -8.323829299790  -6.901776235280  -2.039976960290
     123   41  2   0.42380  -7.572668420710  -5.863497737650  -3.052084459640
     124   42  1  -0.84760  -8.985375928710   3.557289124490  -1.493958608310
     125   42  2   0.42380  -9.487564861440   4.188007739400  -2.085566844090
     126   42  2   0.42380  -8.022447415560   3.542856515730  -1.763328945140
     127   43  1  -0.84760   2.020067000430   0.425247715375   2.790398508160
     128   43  2   0.42380   2.109552633280  -0.362896208289   2.181447379500
     129   43  2   0.42380   2.553372236050   0.266697550755   3.621330136500
     130   44  1  -0.84760   2.495725621730  -1.715172169130   6.045493568970
     131   44  2   0.42380   3.275930399060  -2.321651673470   5.892316820580
     132   44  2   0.42380   2.139879405070  -1.856676808960   6.969262970390
     133   45  1  -0.84760   1.758470674470   6.759081355610   6.033475770900
     134   45  2   0.42380   0.759726491032   6.778950480460   6.079467878120
     135   45  2   0.42380   2.133156010890   7.486265076230   6.608640734310
     136   46  1  -0.84760   0.918674430441  -9.780532010150  -8.619333693210
     137   46  2   0.42380   1.150453125770  -9.306840461720  -7.769689677560
     138   46  2   0.42380   0.485144079056   9.344106992420  -8.405337060940
     139   47  1  -0.84760  -2.205183455850   3.176939866840  -4.051720925660
     140   47  2   0.42380  -2.293341604690   3.863871755140  -4.773075707740
     141   47  2   0.42380  -1.415543224440   3.395223057440  -3.478291981820
     142   48  1  -0.84760  -2.268944568240  -7.710021645140  -4.244563891770
     143   48  2   0.42380  -1.948000905070  -7.435303323060  -5.150944059570
     144   48  2   0.42380  -1.747072757640  -7.222817482240  -3.544362551470
     145   49  1  -0.84760  -4.613191600290  -5.910352268320   2.949234081140
     146   49  2   0.42380  -5.046865405570  -5.380216593450   3.677851399660
     147   49  2   0.42380  -3.642179608830  -5.676532288510   2.899596096790
     148   50  1  -0.84760  -3.552256972350   6.807831124790  -7.766978453650
     149   50  2   0.42380  -4.320929087770   6.581492030140  -8.365237422000
     150   50  2   0.42380  -3.580195211220   7.781901032330  -7.542462819370
     151   51  1  -0.84760   9.142266949670   5.639449964130   5.524821359460
     152   51  2   0.42380   8.767980100100   4.837784609910   5.990913640110
     153   51  2   0.42380   8.780351349240   6.470150680760   5.947850220830
     154   52  1  -0.84760  -8.907263527080   2.275465373030  -4.329303964070
     155   52  2   0.42380  -9.818459320530   1.912718651160  -4.524591039360
     156   52  2   0.42380  -8.472219288930   1.720008646330  -3.620640196390
     157   53  1  -0.84760  -4.864621704240  -6.252150074540   7.154275298620
     158   53  2   0.42380  -4.032202413530  -5.871623049290   7.557111875310
     159   53  2   0.42380  -5.338234422330  -6.811884830030   7.834266472650
     160   54  1  -0.84760  -0.934202823754   8.747472971890   8.979621445190
     161   54  2   0.42380  -0.838649187961   8.949432385210   9.954342891580
     162   54  2   0.42380  -0.055148371257   8.440176968690   8.615159600880
     163   55  1  -0.84760   6.975783497980  -6.499476192000   6.936791604050
     164   55  2   0.42380   7.620810112150  -6.159230821440   6.252559366550
     165   55  2   0.42380   6.882767497270  -5.826715145240   7.670781111850
     166   56  1  -0.84760   7.229339783580  -2.973519813340  -5.513868213700
     167   56  2   0.42380   7.388372399900  -2.290670859510  -6.226908137680
     168   56  2   0.42380   7.251244900000  -2.530745962420  -4.617502505510
     169   57  1  -0.84760   8.421628114820  -9.245761089780  -4.959198503660
     170   57  2   0.42380   8.477578923990  -8.453263759020  -4.351895047640
     171   57  2   0.42380   9.276582645310  -9.335165950910  -5.470138345140
     172   58  1  -0.84760  -8.931455183510   9.054448555020  -2.946666427100
     173   58  2   0.42380  -9.111807259460   9.226970522620  -3.915020339360
     174   58  2   0.42380  -8.473533016820   8.171278141700  -2.845092265520
     175   59  1  -0.84760   3.885701010430   4.217008897520  -8.083457646510
     176   59  2   0.42380   4.717823293600   4.729300128160  -8.295896345600
     177   59  2   0.42380   3.445269496080   4.615408798390  -7.278909574510
     178   60  1  -0.84760   3.397442687470  -6.762359067840  -1.680397055510
     179   60  2   0.42380   4.104442211000  -6.738484756270  -2.387207985650
     180   60  2   0.42380   2.984064268610  -5.856129790500  -1.591702186990
     181   61  1  -0.84760  -5.731669631310   5.937118586200  -9.363727636380
     182   61  2   0.42380  -6.121009647300   6.126956182980   9.734953308680
     183   61  2   0.42380  -6.281784833180   5.240635103740  -8.902984732660
     184   62  1  -0.84760   6.545395847950  -8.477327366310   2.808958706060
     185   62  2   0.42380   5.838839108150  -7.784733394540   2.663730734530
     186   62  2   0.42380   6.167126338580  -9.383813902210   2.621357164190
     187   63  1  -0.84760  -4.624109579190   1.628556599410   8.916452724360
     188   63  2   0.42380  -5.159023144130   2.437394030990   8.672220279100
     189   63  2   0.42380  -4.606609151000   0.994582610292   8.143296390790
     190   64  1  -0.84760  -3.846940848310   7.321462288500   0.345313251090
     191   64  2   0.42380  -3.109911615470   7.832963645420   0.787075938285
     192   64  2   0.42380  -3.746979283650   6.347999082900   0.551170174554
     193   65  1  -0.84760  -0.301285777518   3.926115107780  -7.651302454510
     194   65  2   0.42380   0.314992779446   4.091444414210  -6.881323908920
     195   65  2   0.42380  -1.095299821080   3.405802537930  -7.336951490970
     196   66  1  -0.84760   5.542187657200   5.302648917850   5.917551678190
     197   66  2   0.42380   5.489848757380   6.170295650080   5.423133042190
     198   66  2   0.42380   5.370890206850   4.547545801420   5.284719577970
     199   67  1  -0.84760  -1.605801718810  -2.877224667710   2.124198151520
     200   67  2   0.42380  -1.196894861520  -2.911564669850   1.212268359090
     201   67  2   0.42380  -2.381184525220  -2.245761255200   2.118243138330
     202   68  1  -0.84760   5.626655279880   6.227327147540  -2.121936024620
     203   68  2   0.42380   5.067432837210   6.108680974270  -2.942419629080
     204   68  2   0.42380   6.342524026160   6.902157910840  -2.301199459300
     205   69  1  -0.84760   6.414811898070  -5.872102795620  -6.876352948760
     206   69  2   0.42380   5.907026239130  -5.447378267660  -6.126844576600
     207   69  2   0.42380   5.811082267470  -6.490171477090  -7.379842410520
     208   70  1  -0.84760   8.390141204820  -4.932671280490   4.651997205220
     209   70  2   0.42380   8.322833037130  -5.484647278140   3.820858162350
     210   70  2   0.42380   9.335073930880  -4.629456210750   4.775134383580
     211   71  1  -0.84760   5.593775622990   8.978139715630   1.909385302780
     212   71  2   0.42380   6.014243669900   8.079176326040   1.786619486310
     213   71  2   0.42380   4.644345944110   8.864852473280   2.202215092240
     214   72  1  -0.84760   7.053807770310   8.416260818650  -4.043015538060
     215   72  2   0.42380   6.933597161250   7.782753166230  -4.807356733990
     216   72  2   0.42380   7.566394534080   9.217509462950  -4.351650305380
     217   73  1  -0.84760  -0.250759931121  -9.582110961910   4.965358423990
     218   73  2   0.42380   0.155405515187  -9.638772603360   5.877399590060
     219   73  2   0.42380   0.053601493502  -8.741908784070   4.516555100070
     220   74  1  -0.84760   2.962748532570  -0.589665616907   0.178178928396
     221   74  2   0.42380   2.863074349300  -1.430183640830   0.710714850802
     222   74  2   0.42380   2.119887720760  -0.415826243333  -0.331100488133
     223   75  1  -0.84760  -8.455706497480  -1.767116744260   5.246611366270
     224   75  2   0.42380  -8.283871941140  -2.645400180270   4.800415118790
     225   75  2   0.42380  -9.419013085960  -1.521313694120   5.138809338770
     226   76  1  -0.84760  -4.915438189970   3.351284353300  -6.494648583130
     227   76  2   0.42380  -5.682621011200   3.602503126160  -5.904462470980
     228   76  2   0.42380  -5.233663481670   2.725325293960  -7.206623245440
     229   77  1  -0.84760  -2.088166355450   8.684489734290   1.876140098550
     230   77  2   0.42380  -2.074150782190   9.542638003050   2.389350691310
     231   77  2   0.42380  -1.276954239120   8.631076449630   1.293832685450
     232   78  1  -0.84760  -1.992871210100  -0.488307445983   9.243679876330
     233   78  2   0.42380  -1.512496098600  -0.361779656851   8.375791363430
     234   78  2   0.42380  -2.434096623010   0.369120175410   9.508515691650
     235   79  1  -0.84760   5.296056780980   8.185511837770   4.838343647200
     236   79  2   0.42380   6.131733440470   8.615230010100   4.496310296260
     237   79  2   0.42380   4.851609469780   8.795986129230   5.493925623030
     238   80  1  -0.84760  -7.612637676270  -5.856631629950  -8.427046044510
     239   80  2   0.42380  -7.497623161130  -5.281605621980  -9.237056384850
     240   80  2   0.42380  -6.782938665800  -6.395133812180  -8.280025801810
     241   81  1  -0.84760  -4.902802625180  -6.879117149620  -3.786861619970
     242   81  2   0.42380  -4.987665966420  -6.730674295130  -2.801588595750
     243   81  2   0.42380  -3.970497831350  -7.170630334660  -4.000935986380
     244   82  1  -0.84760  -4.949748073660  -2.151083157440  -8.244017403940
     245   82  2   0.42380  -5.335206093770  -2.430207864070  -7.364522371050
     246   82  2   0.42380  -4.270525422030  -1.432005546490  -8.097102534260
     247   83  1  -0.84760   0.232350201059   2.618921626790   3.132993351910
     248   83  2   0.42380  -0.077520137641   2.768887237120   4.071870707540
     249   83  2   0.42380   0.685932066073   1.729959132110   3.069675307220
     250   84  1  -0.84760   1.252736832170  -9.782483448980   7.155611495870
     251   84  2   0.42380   0.948014728108  -9.087951262400   7.807354912490
     252   84  2   0.42380   1.410821152040   9.355327207080   7.636900268870
     253   85  1  -0.84760   9.679051898120  -0.174794905883   0.928659078672
     254   85  2   0.42380  -9.981392825270   0.404623946596   1.669588230160
     255   85  2   0.42380   9.820194755950   0.287009064752   0.052978893680
     256   86  1  -0.84760   6.541866185210   1.230900807700  -6.507044648260
     257   86  2   0.42380   6.979146273310   1.945758299280  -7.052723025400
     258   86  2   0.42380   5.728966243670   1.603545211420  -6.059462439700
     259   87  1  -0.84760   1.748703785140   8.169428889690   8.778278199240
     260   87  2   0.42380   2.433010740620   8.420711301940   9.462808067100
     261   87  2   0.42380   1.621566444980   7.177552994170   8.782556590040
     262   88  1  -0.84760  -2.712060998450  -1.008384138820  -6.933665825230
     263   88  2   0.42380  -2.760780947570  -1.481348452290  -6.053932271960
     264   88  2   0.42380  -2.173723418740  -1.553896782540  -7.576011998110
     265   89  1  -0.84760   7.899349004980   7.938119650030   6.802644486460
     266   89  2   0.42380   6.994664271430   7.897690949260   7.226803717200
     267   89  2   0.42380   7.912454481470   8.662972332030   6.113865250500
     268   90  1  -0.84760   1.781345636070   2.790680845240  -0.882162740673
     269   90  2   0.42380   1.316257533820   3.197505414700  -0.095914162410
     270   90  2   0.42380   2.720859884110   3.130360694520  -0.926101080657
     271   91  1  -0.84760   4.889646278360  -2.790346145320  -0.170196966107
     272   91  2   0.42380   5.589587310000  -2.098612286250   0.007529847960
     273   91  2   0.42380   4.279953608020  -2.858176530820   0.619533295775
     274   92  1  -0.84760  -1.752396257040  -5.486522222560   2.893828602590
     275   92  2   0.42380  -0.896188108181  -5.902510730590   3.200196301630
     276   92  2   0.42380  -1.608525818830  -4.510812196430   2.728627991470
     277   93  1  -0.84760   4.037850774960   6.278140476490  -4.479360451590
     278   93  2   0.42380   4.372868615260   7.185241089060  -4.734177102080
     279   93  2   0.42380   4.615877224920   5.578997618650  -4.900174766290
     280   94  1  -0.84760  -9.121651881030  -7.296888573920   4.806799335590
     281   94  2   0.42380  -8.227931241660  -7.507523735010   4.410698025730
     282   94  2   0.42380  -9.813315558530  -7.291086606350   4.084602898040
     283   95  1  -0.84760   7.528522749620  -3.906003828620  -8.328378842020
     284   95  2   0.42380   7.278509871760  -4.616075546450  -7.670129864470
     285   95  2   0.42380   7.074692660210  -3.049358856110  -8.083026766400
     286   96  1  -0.84760  -2.937379989520   3.748839115440   1.784578848960
     287   96  2   0.42380  -2.402702652590   4.556242624240   2.034017657790
     288   96  2   0.42380  -2.585186673790   2.951416181550   2.274554902310
     289   97  1  -0.84760  -6.371076510490   5.353047220520   3.813912357460
     290   97  2   0.42380  -6.710825516230   4.952729342220   4.664980045370
     291   97  2   0.42380  -5.882618759790   6.201793866120   4.016491125760
     292   98  1  -0.84760  -8.180414714920  -1.570300145290  -0.894283280926
     293   98  2   0.42380  -7.255088142250  -1.744350295490  -1.231147169050
     294   98  2   0.42380  -8.556612074350  -2.410635644430  -0.504011842521
     295   99  1  -0.84760  -2.268466490950   2.224170178880  -9.666424506020
     296   99  2   0.42380  -2.305017329020   2.230263296770  -8.667111286780
     297   99  2   0.42380  -3.184124900680   2.058041626090   9.967555029200
     298  100  1  -0.84760   4.233494179190   4.092821783220  -0.856081745629
     299  100  2   0.42380   4.291678919490   4.467508305770   0.069242276442
     300  100  2   0.42380   4.516529454280   4.788868311120  -1.515937990630
     301  101  1  -0.84760   8.068518208030  -7.925967204970  -8.922044751320
     302  101  2   0.42380   8.547926807510  -7.320674595690  -8.286601400660
     303  101  2   0.42380   8.678721857990  -8.167977830540  -9.676420229890
     304  102  1  -0.84760   8.076240239130   4.868589943590   2.731062498640
     305  102  2   0.42380   8.896609525810   4.992818954710   2.172885657240
     306  102  2   0.42380   8.208476916310   5.306890803410   3.620110201230
     307  103  1  -0.84760   8.664059428600   8.166357283980  -8.229784240040
     308  103  2   0.42380   8.329444941170   7.919160865100  -9.139139547560
     309  103  2   0.42380   7.913173763180   8.110384437350  -7.571728195380
     310  104  1  -0.84760   8.537444798340   3.098585235410   6.346992449950
     311  104  2   0.42380   7.820753963960   3.014009767990   7.039236076300
     312  104  2   0.42380   8.213586897080   2.712883619120   5.483076757890
     313  105  1  -0.84760   8.342673748930  -6.978355319030  -3.136733716070
     314  105  2   0.42380   8.424080036930  -7.525805400450  -2.303864323770
     315  105  2   0.42380   8.014449303580  -6.063071481110  -2.903229520160
     316  106  1  -0.84760  -2.836640710810  -9.178355051910   7.998100382880
     317  106  2   0.42380  -2.152882889280  -9.886530085030   8.174064481420
     318  106  2   0.42380  -2.977991676640  -9.089147179730   7.012168407540
     319  107  1  -0.84760   3.376002642970   7.624748655950   2.850239808170
     320  107  2   0.42380   4.092151697450   7.743560615230   3.538000122600
     321  107  2   0.42380   2.585251288620   7.175952177630   3.266525787560
     322  108  1  -0.84760   1.254141357200  -3.050359145880  -3.495439767530
     323  108  2   0.42380   1.060693890270  -2.683784259120  -4.405495221850
     324  108  2   0.42380   0.755453699378  -2.520258891860  -2.809652380190
     325  109  1  -0.84760   4.050135949290  -3.995912231290   5.921065594930
     326  109  2   0.42380   4.219772023700  -4.593920355780   6.704398145840
     327  109  2   0.42380   4.896893755610  -3.877784573570   5.402368116710
     328  110  1  -0.84760   6.724306377660   6.851825264120  -6.183792312590
     329  110  2   0.42380   6.178957878350   7.284995022270  -6.901398733220
     330  110  2   0.42380   6.459896335870   5.891218307920  -6.098225931910
     331  111  1  -0.84760  -7.058969141040  -4.724466173960   9.021163945800
     332  111  2   0.42380  -7.486889022460  -5.046546281210   8.176682460150
     333  111  2   0.42380  -7.030366006420  -3.724875864030   9.020128095220
     334  112  1  -0.84760  -0.907000646552   6.295589831760   5.371776116750
     335  112  2   0.42380  -1.328746547110   7.201624160110   5.336673535420
     336  112  2   0.42380  -1.305071429860   5.771584394190   6.124742220150
     337  113  1  -0.84760  -5.276073375450  -2.280383068410  -5.447422406620
     338  113  2   0.42380  -4.303993673670  -2.264427374850  -5.213314591240
     339  113  2   0.42380  -5.659953376970  -1.363303788910  -5.339711035140
     340  114  1  -0.84760  -5.731414618410  -1.872818567590   8.422188696140
     341  114  2   0.42380  -6.351514194960  -1.655801745660   9.176098647100
     342  114  2   0.42380  -5.253970314480  -1.042811311110   8.133857478890
     343  115  1  -0.84760  -6.972270290260  -3.951083605970  -4.108566016500
     344  115  2   0.42380  -6.460935617680  -3.315713838100  -4.687221449990
     345  115  2   0.42380  -7.200840731320  -4.770485367700  -4.634243014610
     346  116  1  -0.84760   7.694880281810   3.710439959090  -3.656034844730
     347  116  2   0.42380   8.416279884710   4.344074254440  -3.376588619700
     348  116  2   0.42380   7.819827207800   2.835679672710  -3.187865316630
     349  117  1  -0.84760   6.199972838880  -3.578913962160   4.575544773780
     350  117  2   0.42380   6.207611352360  -2.715615600390   5.080180872040
     351  117  2   0.42380   7.012882181060  -4.110829354150   4.812703828350
     352  118  1  -0.84760  -0.451217868935  -2.881978001580  -6.035564531450
     353  118  2   0.42380  -0.127463155871  -3.509249126890  -6.743882130500
     354  118  2   0.42380  -1.213726881730  -3.300900769820  -5.542529320070
     355  119  1  -0.84760   4.345908542300  -5.157210908230   3.163057781690
     356  119  2   0.42380   4.172800077520  -6.034235361250   3.611233604590
     357  119  2   0.42380   4.997476853700  -4.628019142460   3.706578536240
     358  120  1  -0.84760   5.086690495630   6.811888909500  -8.374613358400
     359  120  2   0.42380   4.449435103360   6.448753671920  -9.054347397750
     360  120  2   0.42380   4.671728626800   7.596857940370  -7.914580459590
     361  121  1  -0.84760  -7.621014589110   0.746635802635  -2.570816960360
     362  121  2   0.42380  -8.031782884860   0.237284314982  -1.814622230660
     363  121  2   0.42380  -6.989273381390   1.431280351420  -2.207272068650
     364  122  1  -0.84760  -1.674180213570   9.604796391690  -3.687454599100
     365  122  2   0.42380  -1.976660843490  -9.447362676260  -3.787968459120
     366  122  2   0.42380  -2.277224800350   9.128557303350  -3.047506509730
     367  123  1  -0.84760  -0.402487925900   2.349469552520   5.913549278190
     368  123  2   0.42380  -0.882827254925   3.070218002760   6.413345036930
     369  123  2   0.42380  -0.302044696880   1.546531946910   6.501088518790
     370  124  1  -0.84760  -0.421550105344  -0.201241250709   6.865047720420
     371  124  2   0.42380  -0.406222853478  -0.378733468024   5.881044880920
     372  124  2   0.42380   0.122488134353  -0.894750631875   7.337347553130
     373  125  1  -0.84760  -8.252884585050   6.278812694280   5.799541212250
     374  125  2   0.42380  -9.198520634230   6.025080220450   5.596090249590
     375  125  2   0.42380  -8.062867961400   7.185750045660   5.423564719090
     376  126  1  -0.84760   7.679079238300   3.167694145680  -7.879011882690
     377  126  2   0.42380   8.102692789480   3.355286696210  -8.765217611770
     378  126  2   0.42380   8.332949096050   3.364987620400  -7.148580849690
     379  127  1  -0.84760  -6.275938765000  -2.162963276470   3.225178257310
     380  127  2   0.42380  -6.905425100070  -2.938480668060   3.273341825570