LAMMPS Atom File

         300 atoms
         200 bonds
         100 angles
           0 dihedrals
           0 impropers

           2 atom types
           1 bond types
           1 angle types

         0.0  20.0 xlo xhi
         0.0  20.0 ylo yhi
         0.0  20.0 zlo zhi

Masses

         1   15.9994
         2   1.00794

Atoms

       1    1  1  -0.84760  -5.221309047080  -8.384130358330  -8.228015748230
       2    1  2   0.42380  -5.948385989540  -9.011963206010  -7.950193799640
       3    1  2   0.42380  -4.851493150870  -8.672363024610  -9.111281355510
       4    2  1  -0.84760  -1.904156489730  -5.402100413020  -8.548173028900
       5    2  2   0.42380  -1.287488006830  -4.698694439310  -8.901641582460
       6    2  2   0.42380  -2.122167905410  -6.051099551810  -9.277056517860
       7    3  1  -0.84760  -4.455193747390  -1.607730098930  -9.120198867820
       8    3  2   0.42380  -4.155719676470  -0.653644620132  -9.126213847650
       9    3  2   0.42380  -4.126307121850  -2.055073278420  -8.288503209960
      10    4  1  -0.84760  -0.615613876520   1.524491774990  -8.072904308390
      11    4  2   0.42380  -0.870246966001   2.472539276500  -8.263608069800
      12    4  2   0.42380  -0.831348024852   1.306426592010  -7.121113179400
      13    5  1  -0.84760   4.771982411610  -7.333571742530  -8.305275411690
      14    5  2   0.42380   4.785951567520  -6.346929318410  -8.467576334670
      15    5  2   0.42380   5.351050501520  -7.550310089160  -7.519333533210
      16    6  1  -0.84760   2.243099383560  -7.173567744940  -9.124481454800
      17    6  2   0.42380   1.677843531690  -7.988078938470  -8.993877712360
      18    6  2   0.42380   3.168277281900  -7.352758650370  -8.789912365020
      19    7  1  -0.84760  -7.658588752310  -9.040357723190  -7.247917229340
      20    7  2   0.42380  -7.652338437140  -8.361759532130  -6.513434126290
      21    7  2   0.42380  -8.603326943400  -9.250490758090  -7.499539680540
      22    8  1  -0.84760   1.066341787170  -7.807989996690  -4.803722783440
      23    8  2   0.42380   1.283851619840  -6.862574606630  -4.561072391030
      24    8  2   0.42380   1.892033576700  -8.265978552850  -5.133085123610
      25    9  1  -0.84760   9.540115421940  -9.097351423080  -7.868510557920
      26    9  2   0.42380   8.750099033060  -9.408028943740  -7.339971454880
      27    9  2   0.42380   9.392685166620  -8.153710728600  -8.164832274200
      28   10  1  -0.84760  -6.383021194150   8.676621751840  -6.826391955360
      29   10  2   0.42380  -6.153570199950   8.705008067230  -5.853485763400
      30   10  2   0.42380  -7.188774270750   9.244211584100  -6.995518422450
      31   11  1  -0.84760  -1.261047364210  -8.456636911480  -5.705208951290
      32   11  2   0.42380  -1.938071399960  -7.721443930350  -5.738820489730
      33   11  2   0.42380  -0.381829338157  -8.086630750350  -5.405090469030
      34   12  1  -0.84760   6.936447428920   9.065699319970  -8.687132183450
      35   12  2   0.42380   7.709564951200   8.875189173280  -8.082156827950
      36   12  2   0.42380   7.139016546380   9.871844831320  -9.243095462070
      37   13  1  -0.84760  -0.341267630257  -2.817269652840  -8.775632693870
      38   13  2   0.42380   0.143383592646  -3.409123299350  -9.419699812460
      39   13  2   0.42380   0.130158192397  -1.937687693460  -8.711654021820
      40   14  1  -0.84760   7.417342519010  -3.415503702930  -7.576857639020
      41   14  2   0.42380   6.561682540750  -3.641364038220  -8.042511062230
      42   14  2   0.42380   8.155360994380  -3.982983417560  -7.941954206380
      43   15  1  -0.84760   4.917751825220   0.638437788294  -7.863363918160
      44   15  2   0.42380   3.968728251680   0.819683763094  -8.121247910470
      45   15  2   0.42380   4.972273171500  -0.240232868947  -7.389058848710
      46   16  1  -0.84760   7.815857119620   9.638401115190  -5.924847924990
      47   16  2   0.42380   7.716664594770   8.698940678580  -5.596861749880
      48   16  2   0.42380   8.623699784090  -9.946143220970  -5.506772787200
      49   17  1  -0.84760   5.458833571970  -1.648083722220  -6.540483077150
      50   17  2   0.42380   6.225852465090  -1.945223892630  -7.109156741660
      51   17  2   0.42380   4.969937411670  -2.449179309130  -6.195191309110
      52   18  1  -0.84760   8.861588787700  -5.844414255980  -5.945714913340
      53   18  2   0.42380   8.958256723520  -6.781390675500  -5.609961284250
      54   18  2   0.42380   9.656772742770  -5.306412455820  -5.666006957350
      55   19  1  -0.84760   3.124485533740  -9.262802499090  -5.509197720750
      56   19  2   0.42380   3.429673930020  -9.882993615740  -4.786547721360
      57   19  2   0.42380   3.623265147070  -9.462631869050  -6.352576117570
      58   20  1  -0.84760   1.699573066630  -2.731730946780  -6.351107412210
      59   20  2   0.42380   1.134351966460  -3.197516720680  -7.031966223390
      60   20  2   0.42380   2.036109255970  -3.397691096300  -5.685344336850
      61   21  1  -0.84760   2.333776966760  -5.683101726160  -6.713457182500
      62   21  2   0.42380   2.339024028300  -5.914476166050  -7.686307806650
      63   21  2   0.42380   1.830104647750  -6.383036523200  -6.207092220290
      64   22  1  -0.84760  -3.342749754210  -3.405125672490  -7.313597759850
      65   22  2   0.42380  -2.911430098890  -4.071810168560  -7.921458876900
      66   22  2   0.42380  -2.688283857560  -3.120377640440  -6.613174353360
      67   23  1  -0.84760  -6.101984053760  -3.921656889930  -7.318166286280
      68   23  2   0.42380  -5.258732284990  -3.654895524810  -6.851513493990
      69   23  2   0.42380  -6.050172707340  -3.652558221780  -8.279884275700
      70   24  1  -0.84760   9.733221669760  -2.199926055830  -6.282970022010
      71   24  2   0.42380  -9.620555297050  -2.058984216390  -7.032990814560
      72   24  2   0.42380   8.849005671890  -2.483934879400  -6.653781371960
      73   25  1  -0.84760  -9.321880774170   3.967408836250  -4.333796612360
      74   25  2   0.42380   9.879274038860   4.445188714240  -3.968320545520
      75   25  2   0.42380  -9.619098699460   3.278728906030  -4.995144825180
      76   26  1  -0.84760  -2.957584515300   8.337017923760  -9.574155147410
      77   26  2   0.42380  -3.129863666220   8.088363116320  -8.621007372460
      78   26  2   0.42380  -1.974160503390   8.309269144430  -9.753340018510
      79   27  1  -0.84760  -8.805429110760  -4.378861159370  -5.672438966430
      80   27  2   0.42380  -9.383685585280  -3.591241787960  -5.885218607040
      81   27  2   0.42380  -7.854548168570  -4.164181903350  -5.895459707220
      82   28  1  -0.84760  -2.080539527370  -7.770939550070   9.897716854950
      83   28  2   0.42380  -2.896080451950  -8.244961728430   9.565759064330
      84   28  2   0.42380  -1.270647192710  -8.144421809420   9.445405669790
      85   29  1  -0.84760  -7.491850913240   1.885359114250  -3.902264857360
      86   29  2   0.42380  -7.913214458790   2.694185919910  -4.312450133710
      87   29  2   0.42380  -8.126102684910   1.114286433820  -3.958581920710
      88   30  1  -0.84760   4.556720824440   4.952881627180  -6.160726501110
      89   30  2   0.42380   5.071042707110   4.097807078160  -6.094995864190
      90   30  2   0.42380   3.652488919790   4.830242378600  -5.751673598280
      91   31  1  -0.84760   8.114242309040   4.908097323210  -5.890676134230
      92   31  2   0.42380   9.007865407690   5.244175743770  -6.188147229980
      93   31  2   0.42380   7.667879216710   4.432349655820  -6.648583877150
      94   32  1  -0.84760   4.670533270370   9.897748600150  -7.640195866840
      95   32  2   0.42380   5.439587070290   9.387492150880  -8.025156395730
      96   32  2   0.42380   4.511419056110  -9.278405129980  -8.184217916420
      97   33  1  -0.84760  -7.431358418130  -7.170026612990  -5.137390474060
      98   33  2   0.42380  -7.969248527450  -6.329132603190  -5.197152456640
      99   33  2   0.42380  -6.508789252370  -7.000918167310  -5.484187919250
     100   34  1  -0.84760  -2.543458462490   9.212837198710  -4.720514813430
     101   34  2   0.42380  -3.204449822160   9.206710991970  -3.970146309270
     102   34  2   0.42380  -2.197711804760  -9.858173068850  -4.852565279910
     103   35  1  -0.84760   2.259116090710  -0.048324010949  -6.312331813540
     104   35  2   0.42380   2.568414558680  -0.998757626795  -6.344118596740
     105   35  2   0.42380   1.438671554730   0.016377429777  -5.744278570490
     106   36  1  -0.84760  -5.164415994840  -6.414536590520  -6.581895528250
     107   36  2   0.42380  -5.276894734680  -7.169936836450  -7.227433289760
     108   36  2   0.42380  -5.519234416240  -5.572772934830  -6.988758939970
     109   37  1  -0.84760  -3.655970304000   7.728335045740  -6.857593489430
     110   37  2   0.42380  -3.120663031750   8.117239440280  -6.107793852070
     111   37  2   0.42380  -4.590039550640   8.083380787270  -6.819420673150
     112   38  1  -0.84760   1.017694886280  -4.895163284580   9.273848253570
     113   38  2   0.42380   0.795351334326  -5.440368391130   8.465569380470
     114   38  2   0.42380   1.408414424830  -5.487612030510   9.978364204870
     115   39  1  -0.84760   1.007513569620  -0.560120589590  -8.819639430480
     116   39  2   0.42380   0.369787064747   0.209858706806  -8.798739954210
     117   39  2   0.42380   1.567040776190  -0.552079904523  -7.990866450410
     118   40  1  -0.84760   8.110210273310   7.167902580710  -4.231978597570
     119   40  2   0.42380   7.159916793780   7.023688123090  -4.507921513700
     120   40  2   0.42380   8.440814891040   6.361727364310  -3.741283063460
     121   41  1  -0.84760   7.838411063860   4.185915176510  -8.883736261130
     122   41  2   0.42380   7.550393646180   4.806196398490  -9.613323248930
     123   41  2   0.42380   8.780506602200   3.893310274190  -9.047560458880
     124   42  1  -0.84760   9.430899531250  -8.100512832460  -4.545420555310
     125   42  2   0.42380   9.812004834760  -7.381171169110  -3.964639771360
     126   42  2   0.42380  -9.994329995500  -8.916641663590  -4.485649039730
     127   43  1  -0.84760  -4.728126776870   1.442424938130  -4.668773408640
     128   43  2   0.42380  -5.649564919110   1.553156910650  -4.296362103370
     129   43  2   0.42380  -4.152639249700   2.202022114940  -4.365744969290
     130   44  1  -0.84760   4.515867912860  -4.349672068640  -6.235976191380
     131   44  2   0.42380   3.725564075550  -4.951027724580  -6.353412215640
     132   44  2   0.42380   5.227165760940  -4.830343788930  -5.723131118650
     133   45  1  -0.84760   0.634700136648   2.202558936060  -4.078027285790
     134   45  2   0.42380   0.170809702546   2.334654867390  -3.202038512990
     135   45  2   0.42380   0.271478467621   1.386628608970  -4.527835823370
     136   46  1  -0.84760  -2.851101743470   3.223750970140  -3.994686990910
     137   46  2   0.42380  -2.654842886200   4.062347146280  -4.502859121490
     138   46  2   0.42380  -2.201805685460   3.131818471010  -3.239728022050
     139   47  1  -0.84760  -1.020458571180   2.732986652830  -1.707119155260
     140   47  2   0.42380  -0.467120976309   3.547319034380  -1.531961288010
     141   47  2   0.42380  -1.744453775960   2.667920411990  -1.020389712360
     142   48  1  -0.84760  -0.177819162420   8.016407028410  -9.236451054180
     143   48  2   0.42380   0.510997288734   7.373517166250  -8.901451767990
     144   48  2   0.42380  -0.227119845549   8.802863412890  -8.620775979200
     145   49  1  -0.84760   6.526880693190   2.584168350360  -7.072815442820
     146   49  2   0.42380   6.746423660050   3.131465380170  -7.880445832830
     147   49  2   0.42380   5.756283810900   1.980910433470  -7.278388618880
     148   50  1  -0.84760   3.934508953910   7.064975010290  -7.876158632440
     149   50  2   0.42380   4.240952705170   6.435192244290  -7.162389835870
     150   50  2   0.42380   4.229367559760   7.993481767570  -7.650473887190
     151   51  1  -0.84760   1.701003068330   5.458022883200  -8.590415144500
     152   51  2   0.42380   2.334451368940   6.118505541640  -8.187294928750
     153   51  2   0.42380   2.021946961790   4.530033362990  -8.401125769110
     154   52  1  -0.84760   2.293213444910   4.703545507660  -4.412352803870
     155   52  2   0.42380   1.685997357420   5.414495511300  -4.057615273570
     156   52  2   0.42380   1.760007717870   3.883980683760  -4.622126853940
     157   53  1  -0.84760  -1.729283529660  -3.725570075020  -4.792832382670
     158   53  2   0.42380  -0.911143923522  -3.627047486900  -4.226315935860
     159   53  2   0.42380  -1.939654506710  -4.696318190860  -4.908556829590
     160   54  1  -0.84760  -2.479453187670  -6.155377994260  -6.101891706830
     161   54  2   0.42380  -2.124654605130  -6.063347647910  -7.032293975300
     162   54  2   0.42380  -3.478570662920  -6.188352992450  -6.127909395910
     163   55  1  -0.84760   4.540456667180   4.184688630900  -2.749654486320
     164   55  2   0.42380   3.774755576770   4.666331105030  -3.175943551680
     165   55  2   0.42380   4.237909150550   3.281703025280  -2.444561064210
     166   56  1  -0.84760   0.022788724308   6.749131053330  -4.105963852620
     167   56  2   0.42380   0.074481344758   7.701344667330  -4.406990606100
     168   56  2   0.42380  -0.684835666104   6.272579698820  -4.627659672630
     169   57  1  -0.84760  -4.319958192140  -9.247275800000   9.158948582730
     170   57  2   0.42380  -5.062887205020  -9.447648642610   8.520272447460
     171   57  2   0.42380  -3.950199049800   9.896356967880   9.519383515010
     172   58  1  -0.84760   3.365689523670   1.682699848600  -2.437813960240
     173   58  2   0.42380   2.656753933700   2.106656464940  -3.001437164820
     174   58  2   0.42380   3.855972745020   0.998531964784  -2.977755317820
     175   59  1  -0.84760   3.684765730010   8.680173323420  -3.689486096350
     176   59  2   0.42380   2.924789201820   8.080312727390  -3.439280297190
     177   59  2   0.42380   4.487553314220   8.126473397650  -3.910729145590
     178   60  1  -0.84760   5.480881145340   6.469378013020  -4.047533591500
     179   60  2   0.42380   5.633138457820   5.859830752910  -3.269542686360
     180   60  2   0.42380   5.287793542600   5.925578854200  -4.864234058330
     181   61  1  -0.84760  -8.581663802200  -1.480228663110  -8.458974844100
     182   61  2   0.42380  -8.290172450910  -0.536111800848  -8.305104305930
     183   61  2   0.42380  -7.990687793070  -1.903845693130  -9.145484835660
     184   62  1  -0.84760  -5.047373527310   6.716097611520  -4.527311780890
     185   62  2   0.42380  -5.908894503480   6.281627314360  -4.264600592490
     186   62  2   0.42380  -4.464876586330   6.048148267610  -4.990497475530
     187   63  1  -0.84760  -0.228148946852  -0.185994192246  -5.135105353630
     188   63  2   0.42380   0.016092289167  -1.144126695670  -5.284532006250
     189   63  2   0.42380  -1.108080738590  -0.136108136404  -4.662631625980
     190   64  1  -0.84760   4.265816422890   0.043349696404  -4.393527425650
     191   64  2   0.42380   5.124142482030  -0.444493911357  -4.552539974090
     192   64  2   0.42380   3.830349093700   0.246282568719  -5.270560181340
     193   65  1  -0.84760  -8.673135177000  -0.280272904141  -4.846412536420
     194   65  2   0.42380  -7.818139513260  -0.798390115859  -4.823239925160
     195   65  2   0.42380  -9.423785885070  -0.887340543560  -5.107166051520
     196   66  1  -0.84760  -2.289143706190   5.603240285230  -5.432141349650
     197   66  2   0.42380  -1.694216184990   5.230665844570  -6.144355875400
     198   66  2   0.42380  -2.851727838230   6.335000414760  -5.816883090560
     199   67  1  -0.84760  -9.697321725800   8.118207649070  -7.911651154460
     200   67  2   0.42380  -9.939933015860   9.021406051890  -8.265730816500
     201   67  2   0.42380  -8.795043005290   7.857047058880  -8.254708375100
     202   68  1  -0.84760  -7.234099064470   5.366065120550  -3.296447085160
     203   68  2   0.42380  -7.837614285140   4.677673412130  -3.698797969590
     204   68  2   0.42380  -7.432667933620   5.453801446000  -2.320295077840
     205   69  1  -0.84760  -6.907389091660  -2.684536220760   9.811482630700
     206   69  2   0.42380  -5.979160622670  -2.313194775030   9.833785994690
     207   69  2   0.42380  -7.060246972040  -3.147598922270   8.938437727580
     208   70  1  -0.84760  -2.577311691570  -0.042482439495  -4.149171030860
     209   70  2   0.42380  -3.282896480970   0.582326908285  -4.483481341650
     210   70  2   0.42380  -2.961864737010  -0.960989440086  -4.057171872650
     211   71  1  -0.84760   0.365049222818  -2.797857290510  -3.042802527680
     212   71  2   0.42380   0.984278794477  -2.017201159530  -3.127246252970
     213   71  2   0.42380  -0.443862741640  -2.526748802830  -2.521111410570
     214   72  1  -0.84760   6.558000766480  -5.406812543720  -4.824229333020
     215   72  2   0.42380   6.771285857820  -5.569322209190  -3.860849823980
     216   72  2   0.42380   7.408021541740  -5.314774427820  -5.342875326780
     217   73  1  -0.84760   2.292069043800  -0.989854216108  -2.964982517210
     218   73  2   0.42380   2.961463245280  -0.765553425907  -3.673220159920
     219   73  2   0.42380   2.474847838360  -0.442528873342  -2.148265380480
     220   74  1  -0.84760  -6.086284024360  -1.449770458930  -4.834546838160
     221   74  2   0.42380  -5.609804466150  -0.571233002844  -4.800795262560
     222   74  2   0.42380  -5.424305085630  -2.192157698700  -4.731371885270
     223   75  1  -0.84760  -4.410131362680  -3.449276892410  -4.326109302470
     224   75  2   0.42380  -3.546692901440  -3.348847338790  -4.820465376980
     225   75  2   0.42380  -4.326395272510  -4.186186335220  -3.655324135440
     226   76  1  -0.84760  -7.166349038820   5.852861950930  -6.413507566460
     227   76  2   0.42380  -8.049221503610   5.934980356850  -5.951130254810
     228   76  2   0.42380  -6.697520481600   6.735978151660  -6.396027293380
     229   77  1  -0.84760  -9.585217292550   6.661140167260  -5.772377995210
     230   77  2   0.42380   9.617237737360   6.782968284120  -5.181548129150
     231   77  2   0.42380  -9.681080475300   7.236584820690  -6.584580987700
     232   78  1  -0.84760  -4.506846083230   8.993139526940  -2.532642092800
     233   78  2   0.42380  -4.606485611780   8.188374929020  -3.117813782380
     234   78  2   0.42380  -4.838057385360   8.779968934590  -1.613480859990
     235   79  1  -0.84760   6.452202336300  -7.925327718100  -6.280725582730
     236   79  2   0.42380   6.793911857630  -7.261741207070  -5.615227614720
     237   79  2   0.42380   6.659355012420  -8.851197003060  -5.964729006900
     238   80  1  -0.84760  -0.801115682334   4.505043335210  -7.730381719300
     239   80  2   0.42380  -1.524449251450   4.450779208600  -8.418744960880
     240   80  2   0.42380   0.047090165255   4.812468303770  -8.161701471720
     241   81  1  -0.84760  -6.531805876460   9.869818917210  -4.305781933060
     242   81  2   0.42380  -6.940198251620  -9.248388668790  -4.069862865350
     243   81  2   0.42380  -5.883588547260   9.601392888470  -3.593207893950
     244   82  1  -0.84760   0.403271824701   5.279304148160  -1.586999579890
     245   82  2   0.42380   1.350109844060   5.368570657650  -1.277921506600
     246   82  2   0.42380   0.210397344731   5.977678163510  -2.276255098300
     247   83  1  -0.84760   9.697103829650   2.376340801860  -6.229898126190
     248   83  2   0.42380  -9.738009632160   1.840745185540  -6.857624607030
     249   83  2   0.42380   8.748940638270   2.371042442050  -6.547637783580
     250   84  1  -0.84760   0.351016585215   9.311396680780  -4.532497195040
     251   84  2   0.42380  -0.577998954230   9.681229946890  -4.544886010310
     252   84  2   0.42380   1.008527638350  -9.936624543400  -4.485517031930
     253   85  1  -0.84760  -9.982898171690   9.223701022560  -3.841050177160
     254   85  2   0.42380   9.318252461650   8.531076419840  -4.019601913180
     255   85  2   0.42380  -9.081115584670   8.791705387730  -3.828091116920
     256   86  1  -0.84760  -5.266853158140   3.442603465450  -6.719658287400
     257   86  2   0.42380  -5.863162363320   4.211341372500  -6.488449805560
     258   86  2   0.42380  -5.250540984500   2.793049168650  -5.959518084210
     259   87  1  -0.84760  -3.520957418740   4.345015109420  -8.689577002070
     260   87  2   0.42380  -4.118409571580   4.983351151960  -9.174940805690
     261   87  2   0.42380  -4.070116057730   3.769959650750  -8.083164593980
     262   88  1  -0.84760  -0.224242930187  -8.617326236860  -8.238470523180
     263   88  2   0.42380  -0.885415757637  -8.228520890090  -8.880094162520
     264   88  2   0.42380  -0.619046267454  -8.629929434290  -7.319791316770
     265   89  1  -0.84760   8.267805098740  -6.531530044640  -8.423804515490
     266   89  2   0.42380   8.421452616980  -6.313633421630  -7.460002927080
     267   89  2   0.42380   7.293654509660  -6.447249433070  -8.633393180050
     268   90  1  -0.84760   5.135966232530  -4.666078672400  -8.856460829450
     269   90  2   0.42380   4.628234704750  -4.058547294050  -9.467291673490
     270   90  2   0.42380   4.817827291680  -4.536363565750  -7.917332720290
     271   91  1  -0.84760  -8.039121615430   1.008143132880  -7.142232112720
     272   91  2   0.42380  -7.259696019050   1.632202243400  -7.087041839300
     273   91  2   0.42380  -8.130330758290   0.511613944628  -6.279017390030
     274   92  1  -0.84760   1.412563670670  -5.372888699880  -3.499441013940
     275   92  2   0.42380   1.994201912320  -5.541800017590  -2.703723776100
     276   92  2   0.42380   0.847030292959  -4.565039199140  -3.333455524070
     277   93  1  -0.84760   9.888274861400  -5.841394666960  -3.031762368860
     278   93  2   0.42380   9.777614102680  -6.148455513150  -2.086528094610
     279   93  2   0.42380  -9.593441225420  -4.986303455590  -3.045932956970
     280   94  1  -0.84760   9.301204774810  -7.358049105590  -0.697677614774
     281   94  2   0.42380   8.912083621410  -8.231323304930  -0.990895794192
     282   94  2   0.42380   9.159517259590  -7.243376133880   0.285569433323
     283   95  1  -0.84760   8.506802748690  -9.565060624730  -1.884108174150
     284   95  2   0.42380   9.196053127300  -9.841765487040  -2.553711291500
     285   95  2   0.42380   7.594257561190  -9.746001654110  -2.250880071460
     286   96  1  -0.84760   3.415589993970  -3.027419535130   9.852107934390
     287   96  2   0.42380   3.402931437060  -2.027893152690   9.880157386130
     288   96  2   0.42380   2.578296523550  -3.359301282090   9.417603446010
     289   97  1  -0.84760   6.263481562850   9.347340757730  -2.827445630010
     290   97  2   0.42380   5.294072024630   9.561871884320  -2.946699740790
     291   97  2   0.42380   6.362518602980   8.387899017340  -2.563507736780
     292   98  1  -0.84760   8.090817989860   4.925247259050  -2.409139761290
     293   98  2   0.42380   7.609973936770   5.092539217780  -1.548440977070
     294   98  2   0.42380   7.797602172970   4.048226931690  -2.789744320030
     295   99  1  -0.84760  -0.131944309536  -9.839408872640   8.799723482140
     296   99  2   0.42380   0.509182911780   9.683654827830   8.198485050000
     297   99  2   0.42380  -0.393448177609   9.557714211170   9.553484154310
     298  100  1  -0.84760   6.522720961100   6.320123945930   9.606656807740
     299  100  2   0.42380   5.540967947570   6.158403915960   9.706695062120
     300  100  2   0.42380   6.753621862080   7.215290836610   9.987919199990

Bonds

       1   1      1      2
       2   1      1      3
       3   1      4      5
       4   1      4      6
       5   1      7      8
       6   1      7      9
       7   1     10     11
       8   1     10     12
       9   1     13     14
      10   1     13     15
      11   1     16     17
      12   1     16     18
      13   1     19     20
      14   1     19     21
      15   1     22     23
      16   1     22     24
      17   1     25     26
      18   1     25     27
      19   1     28     29
      20   1     28     30
      21   1     31     32
      22   1     31     33
      23   1     34     35
      24   1     34     36
      25   1     37     38
      26   1     37     39
      27   1     40     41
      28   1     40     42
      29   1     43     44
      30   1     43     45
      31   1     46     47
      32   1     46     48
      33   1     49     50
      34   1     49     51
      35   1     52     53
      36   1     52     54
      37   1     55     56
      38   1     55     57
      39   1     58     59
      40   1     58     60
      41   1     61     62
      42   1     61     63
      43   1     64     65
      44   1     64     66
      45   1     67     68
      46   1     67     69
      47   1     70     71
      48   1     70     72
      49   1     73     74
      50   1     73     75
      51   1     76     77
      52   1     76     78
      53   1     79     80
      54   1     79     81
      55   1     82     83
      56   1     82     84
      57   1     85     86
      58   1     85     87
      59   1     88     89
      60   1     88     90
      61   1     91     92
      62   1     91     93
      63   1     94     95
      64   1     94     96
      65   1     97     98
      66   1     97     99
      67   1    100    101
      68   1    100    102
      69   1    103    104
      70   1    103    105
      71   1    106    107
      72   1    106    108
      73   1    109    110
      74   1    109    111
      75   1    112    113
      76   1    112    114
      77   1    115    116
      78   1    115    117
      79   1    118    119
      80   1    118    120
      81   1    121    122
      82   1    121    123
      83   1    124    125
      84   1    124    126
      85   1    127    128
      86   1    127    129
      87   1    130    131
      88   1    130    132
      89   1    133    134
      90   1    133    135
      91   1    136    137
      92   1    136    138
      93   1    139    140
      94   1    139    141
      95   1    142    143
      96   1    142    144
      97   1    145    146
      98   1    145    147
      99   1    148    149
     100   1    148    150
     101   1    151    152
     102   1    151    153
     103   1    154    155
     104   1    154    156
     105   1    157    158
     106   1    157    159
     107   1    160    161
     108   1    160    162
     109   1    163    164
     110   1    163    165
     111   1    166    167
     112   1    166    168
     113   1    169    170
     114   1    169    171
     115   1    172    173
     116   1    172    174
     117   1    175    176
     118   1    175    177
     119   1    178    179
     120   1    178    180
     121   1    181    182
     122   1    181    183
     123   1    184    185
     124   1    184    186
     125   1    187    188
     126   1    187    189
     127   1    190    191
     128   1    190    192
     129   1    193    194
     130   1    193    195
     131   1    196    197
     132   1    196    198
     133   1    199    200
     134   1    199    201
     135   1    202    203
     136   1    202    204
     137   1    205    206
     138   1    205    207
     139   1    208    209
     140   1    208    210
     141   1    211    212
     142   1    211    213
     143   1    214    215
     144   1    214    216
     145   1    217    218
     146   1    217    219
     147   1    220    221
     148   1    220    222
     149   1    223    224
     150   1    223    225
     151   1    226    227
     152   1    226    228
     153   1    229    230
     154   1    229    231
     155   1    232    233
     156   1    232    234
     157   1    235    236
     158   1    235    237
     159   1    238    239
     160   1    238    240
     161   1    241    242
     162   1    241    243
     163   1    244    245
     164   1    244    246
     165   1    247    248
     166   1    247    249
     167   1    250    251
     168   1    250    252
     169   1    253    254
     170   1    253    255
     171   1    256    257
     172   1    256    258
     173   1    259    260
     174   1    259    261
     175   1    262    263
     176   1    262    264
     177   1    265    266
     178   1    265    267
     179   1    268    269
     180   1    268    270
     181   1    271    272
     182   1    271    273
     183   1    274    275
     184   1    274    276
     185   1    277    278
     186   1    277    279
     187   1    280    281
     188   1    280    282
     189   1    283    284
     190   1    283    285
     191   1    286    287
     192   1    286    288
     193   1    289    290
     194   1    289    291
     195   1    292    293
     196   1    292    294
     197   1    295    296
     198   1    295    297
     199   1    298    299
     200   1    298    300

Angles

       1   1      2      1      3
       2   1      5      4      6
       3   1      8      7      9
       4   1     11     10     12
       5   1     14     13     15
       6   1     17     16     18
       7   1     20     19     21
       8   1     23     22     24
       9   1     26     25     27
      10   1     29     28     30
      11   1     32     31     33
      12   1     35     34     36
      13   1     38     37     39
      14   1     41     40     42
      15   1     44     43     45
      16   1     47     46     48
      17   1     50     49     51
      18   1     53     52     54
      19   1     56     55     57
      20   1     59     58     60
      21   1     62     61     63
      22   1     65     64     66
      23   1     68     67     69
      24   1     71     70     72