LAMMPS Atom File

         3000 atoms
         2000 bonds
         1000 angles
           0 dihedrals
           0 impropers

           2 atom types
           1 bond types
           1 angle types

         0.0  42.5863285018 xlo xhi
         0.0  42.5863285018 ylo yhi
         0.0  42.5863285018 zlo zhi

Masses

         1    1.0e-20
         2   14.00670

Atoms

       1    1  1   0.96400    -14.689619044200     10.877532807200      8.378437098690
       2    1  2  -0.48200    -14.628656518700     11.107518591400      8.874310176750
       3    1  2  -0.48200    -14.750581569700     10.647547023000      7.882564020640
       4    2  1   0.96400      7.440326406080     -0.965558990200     -0.911289602192
       5    2  2  -0.48200      7.321226208560     -1.162969963880     -0.411945982604
       6    2  2  -0.48200      7.559426603600     -0.768148016521     -1.410633221780
       7    3  1   0.96400    -13.351857642600     20.769511115500     16.413067683500
       8    3  2  -0.48200    -13.320017616600     21.240925450200     16.694589863400
       9    3  2  -0.48200    -13.383697668700     20.298096780800     16.131545503600
      10    4  1   0.96400     11.038700170700    -15.844605681400     -1.997605961730
      11    4  2  -0.48200     10.853134899300    -15.455940353300     -2.339665594990
      12    4  2  -0.48200     11.224265442200    -16.233271009600     -1.655546328470
      13    5  1   0.96400    -11.274790371300     20.008177083700     -0.655463709251
      14    5  2  -0.48200    -11.116736824700     19.847655523600     -0.153714862562
      15    5  2  -0.48200    -11.432843917900     20.168698643900     -1.157212555940
      16    6  1   0.96400     -9.519332052700     15.488930907900    -18.704323417700
      17    6  2  -0.48200     -9.030410770610     15.303293718000    -18.534044782400
      18    6  2  -0.48200    -10.008253334800     15.674568097800    -18.874602053000
      19    7  1   0.96400     17.325394504700      2.178176379760     -2.030143848030
      20    7  2  -0.48200     17.331962462000      1.739801314660     -2.362234444450
      21    7  2  -0.48200     17.318826547300      2.616551444860     -1.698053251600
      22    8  1   0.96400     17.328601994300     -0.670196553265      5.178465601750
      23    8  2  -0.48200     17.808828799400     -0.928394535703      5.250687603610
      24    8  2  -0.48200     16.848375189200     -0.411998570827      5.106243599880
      25    9  1   0.96400      7.132392377570     13.802708939300    -19.320190999800
      26    9  2  -0.48200      7.392392081410     13.664195231800    -18.855740672200
      27    9  2  -0.48200      6.872392673730     13.941222646800    -19.784641327400
      28   10  1   0.96400     15.303828798200     -6.145983425630    -20.407063591000
      29   10  2  -0.48200     15.514145720100     -6.651618686940    -20.356075603500
      30   10  2  -0.48200     15.093511876200     -5.640348164320    -20.458051578600
      31   11  1   0.96400     -1.348615291320     -6.755543734460    -15.041080732900
      32   11  2  -0.48200     -1.246361879240     -6.742865212410    -14.500818301400
      33   11  2  -0.48200     -1.450868703410     -6.768222256500    -15.581343164300
      34   12  1   0.96400     -9.865441333550     -5.672343710530      1.485976260740
      35   12  2  -0.48200     -9.950681929740     -6.212359323960      1.546119240440
      36   12  2  -0.48200     -9.780200737370     -5.132328097090      1.425833281030
      37   13  1   0.96400    -14.367578410800    -11.617784184700     15.201299829700
      38   13  2  -0.48200    -13.903485956000    -11.823872479600     15.412595376500
      39   13  2  -0.48200    -14.831670865700    -11.411695889800     14.990004282900
      40   14  1   0.96400    -14.809436550500     -8.761727878630     13.704653102800
      41   14  2  -0.48200    -14.840435083900     -8.696507791600     14.249891978200
      42   14  2  -0.48200    -14.778438017200     -8.826947965670     13.159414227500
      43   15  1   0.96400     16.737408798900     17.093163042000     17.315017090800
      44   15  2  -0.48200     16.714956053800     16.615134162500     17.586096903200
      45   15  2  -0.48200     16.759861544000     17.571191921400     17.043937278500
      46   16  1   0.96400     10.414134524300     15.055083722600     15.351039171700
      47   16  2  -0.48200     10.820786078400     14.708601827000     15.481748045200
      48   16  2  -0.48200     10.007482970300     15.401565618200     15.220330298200
      49   17  1   0.96400    -18.319645099100     20.502380118500      3.455972358020
      50   17  2  -0.48200    -18.230671689700     20.442074904600      2.916577313930
      51   17  2  -0.48200    -18.408618508500     20.562685332500      3.995367402110
      52   18  1   0.96400     -7.293730680070     -6.001288185250     11.694978738600
      53   18  2  -0.48200     -6.894438751720     -5.704841858490     11.460062729500
      54   18  2  -0.48200     -7.693022608410     -6.297734512020     11.929894747600
      55   19  1   0.96400     -0.113548587756     -8.119377120810     19.451571553000
      56   19  2  -0.48200     -0.308239494453     -8.599663225360     19.267395798300
      57   19  2  -0.48200      0.081142318941     -7.639091016260     19.635747307700
      58   20  1   0.96400    -12.154858136700     -4.143403935100    -15.912288752500
      59   20  2  -0.48200    -12.150765705900     -3.789651005130    -15.491168678700
      60   20  2  -0.48200    -12.158950567600     -4.497156865080    -16.333408826300
      61   21  1   0.96400     14.139591743600    -14.626051005700      7.089303777060
      62   21  2  -0.48200     13.724360795500    -14.388486298000      6.817925315550
      63   21  2  -0.48200     14.554822691700    -14.863615713500      7.360682238570
      64   22  1   0.96400      1.979718109380     -5.885114504770     13.265632422000
      65   22  2  -0.48200      1.917230956770     -5.485736851980     13.638583955400
      66   22  2  -0.48200      2.042205261980     -6.284492157570     12.892680888700
      67   23  1   0.96400     -7.127431734260     -8.396535630710      7.802052441140
      68   23  2  -0.48200     -6.875202254960     -8.248040569640      8.267701994580
      69   23  2  -0.48200     -7.379661213550     -8.545030691780      7.336402887710
      70   24  1   0.96400      3.071674685990     -7.000227305780     21.060246130500
      71   24  2  -0.48200      3.278998898120     -7.298904553940     20.647561538500
      72   24  2  -0.48200      2.864350473860     -6.701550057610     21.472930722563
      73   25  1   0.96400    -18.739302977200      1.296660379950    -17.542168454100
      74   25  2  -0.48200    -18.911701945600      1.331709262030    -18.063273214700
      75   25  2  -0.48200    -18.566904008700      1.261611497870    -17.021063693500
      76   26  1   0.96400     -5.030546866370    -10.030955416700     11.478487407400
      77   26  2  -0.48200     -4.667578717980     -9.663278982350     11.289892171800
      78   26  2  -0.48200     -5.393515014770    -10.398631851000     11.667082643000
      79   27  1   0.96400     10.818711190600     -3.920760471190     10.942108436300
      80   27  2  -0.48200     10.696873585400     -3.425437428790     11.147804040600
      81   27  2  -0.48200     10.940548795800     -4.416083513590     10.736412832000
      82   28  1   0.96400     20.389190568900    -17.739284624300    -12.327597457100
      83   28  2  -0.48200     20.477687606800    -17.772375106600    -11.785773413400
      84   28  2  -0.48200     20.300693531000    -17.706194142000    -12.869421500700
      85   29  1   0.96400    -11.583391468500      4.848254793330      6.216832255930
      86   29  2  -0.48200    -11.457375056700      5.311970861530      6.484390234790
      87   29  2  -0.48200    -11.709407880300      4.384538725130      5.949274277060
      88   30  1   0.96400     14.035124854600     -5.957662709940    -16.284258886400
      89   30  2  -0.48200     13.723896489400     -6.064091092780    -15.843452915500
      90   30  2  -0.48200     14.346353219800     -5.851234327090    -16.725064857400
      91   31  1   0.96400     20.641582595000      6.403441565630    -18.623625639700
      92   31  2  -0.48200     20.978523392100      6.470671239120    -18.194147968200
      93   31  2  -0.48200     20.304641797900      6.336211892140    -19.053103311100
      94   32  1   0.96400     15.988594014300    -20.356387843800     10.823741672900
      95   32  2  -0.48200     16.374455284000    -20.668499752000     11.060801237900
      96   32  2  -0.48200     15.602732744600    -20.044275935700     10.586682108000
      97   33  1   0.96400    -12.225826905800     -6.229638777400      7.485920265260
      98   33  2  -0.48200    -12.370220614900     -6.736507722980      7.643191778190
      99   33  2  -0.48200    -12.081433196600     -5.722769831830      7.328648752320
     100   34  1   0.96400     11.424661687600     17.626064378500    -21.075723373000
     101   34  2  -0.48200     11.434681917600     17.117364442800    -21.284586894000
     102   34  2  -0.48200     11.414641457500     18.134764314100    -20.866859851900
     103   35  1   0.96400      4.734458089200     -8.351818490240      8.224887480760
     104   35  2  -0.48200      4.455469778390     -7.893486476460      8.104068245650
     105   35  2  -0.48200      5.013446400020     -8.810150504020      8.345706715870
     106   36  1   0.96400     14.462466350700    -18.473053047300     20.336051228600
     107   36  2  -0.48200     14.899638587400    -18.491948352600     20.002849483500
     108   36  2  -0.48200     14.025294114000    -18.454157742000     20.669252973600
     109   37  1   0.96400     -9.906432896280    -15.420709974600      6.660097826330
     110   37  2  -0.48200     -9.821195255140    -15.061543571200      7.067815914220
     111   37  2  -0.48200     -9.991670537410    -15.779876378000      6.252379738450
     112   38  1   0.96400     -4.490859088120    -10.698415372500     14.787814128800
     113   38  2  -0.48200     -4.680242423910    -11.206664127400     14.696615690000
     114   38  2  -0.48200     -4.301475752330    -10.190166617600     14.879012567700
     115   39  1   0.96400     19.435323683000    -16.338580413300    -17.438057981600
     116   39  2  -0.48200     19.002349833000    -16.224086249400    -17.757314511100
     117   39  2  -0.48200     19.868297533000    -16.453074577200    -17.118801452000
     118   40  1   0.96400     -0.132426948819     16.348256172100     17.870536440100
     119   40  2  -0.48200     -0.311967454541     16.724724711000     17.512016362500
     120   40  2  -0.48200      0.047113556903     15.971787633200     18.229056517700
     121   41  1   0.96400    -20.375660703900     -2.683982882650    -16.622410194800
     122   41  2  -0.48200    -20.401793323500     -2.249278247180    -16.286480193000
     123   41  2  -0.48200    -20.349528084300     -3.118687518130    -16.958340196600
     124   42  1   0.96400    -12.787755612600     14.896822795700     -7.602444506870
     125   42  2  -0.48200    -13.295861710900     14.710273044900     -7.700052822790
     126   42  2  -0.48200    -12.279649514300     15.083372546500     -7.504836190950
     127   43  1   0.96400    -13.265657744900     -8.335868105070    -16.558794250100
     128   43  2  -0.48200    -12.853547057400     -8.592959265800    -16.300784722500
     129   43  2  -0.48200    -13.677768432400     -8.078776944340    -16.816803777700
     130   44  1   0.96400     -1.577739724220     16.878601704300    -11.828126402500
     131   44  2  -0.48200     -1.143251249730     16.565488759300    -11.702906399300
     132   44  2  -0.48200     -2.012228198720     17.191714649300    -11.953346405600
     133   45  1   0.96400     -6.279486861640     -7.747844485630     -4.492895914230
     134   45  2  -0.48200     -6.060011502400     -7.659029757940     -4.989325678480
     135   45  2  -0.48200     -6.498962220880     -7.836659213330     -3.996466149980
     136   46  1   0.96400      0.263195242559     -2.408194678820    -14.412649945100
     137   46  2  -0.48200      0.561925153948     -2.666923884420    -14.795167445600
     138   46  2  -0.48200     -0.035534668831     -2.149465473230    -14.030132444600
     139   47  1   0.96400    -14.712003727900     18.833391741800     -9.066352529250
     140   47  2  -0.48200    -14.947063288500     18.340058272400     -9.004150512290
     141   47  2  -0.48200    -14.476944167300     19.326725211300     -9.128554546200
     142   48  1   0.96400      3.506015775030      3.478314629740      9.333150027870
     143   48  2  -0.48200      3.950206575350      3.166809146840      9.242823580790
     144   48  2  -0.48200      3.061824974720      3.789820112630      9.423476474950
     145   49  1   0.96400     17.243225225400      6.301182124360     15.148701128900
     146   49  2  -0.48200     16.808571646500      6.629935351560     15.222846809700
     147   49  2  -0.48200     17.677878804200      5.972428897170     15.074555448000
     148   50  1   0.96400     -1.017503793400    -10.289183905600     -8.133094000540
     149   50  2  -0.48200     -1.073328491160     -9.847467212470     -8.456002603850
     150   50  2  -0.48200     -0.961679095632    -10.730900598800     -7.810185397230
     151   51  1   0.96400     -2.935254785760      4.180305654600     -1.500735813890
     152   51  2  -0.48200     -3.256756822170      3.734324012600     -1.516124627470
     153   51  2  -0.48200     -2.613752749340      4.626287296600     -1.485347000310
     154   52  1   0.96400     -2.321860806740    -14.000526627400     -5.003090620630
     155   52  2  -0.48200     -1.815427050000    -14.156528403200     -4.855821153380
     156   52  2  -0.48200     -2.828294563480    -13.844524851600     -5.150360087880
     157   53  1   0.96400     19.186425974800    -11.107612832400    -16.338539258700
     158   53  2  -0.48200     19.292326661800    -10.756723751600    -15.928463780900
     159   53  2  -0.48200     19.080525287900    -11.458501913200    -16.748614736500
     160   54  1   0.96400     -6.442268310540     -3.606790269570     -5.286592286670
     161   54  2  -0.48200     -6.690026632190     -3.958177482700     -5.629583307690
     162   54  2  -0.48200     -6.194509988890     -3.255403056450     -4.943601265640
     163   55  1   0.96400    -10.255541616600      4.235816618830     -7.857927702020
     164   55  2  -0.48200    -10.168461003500      4.778648101600     -7.842086359750
     165   55  2  -0.48200    -10.342622229800      3.692985136070     -7.873769044300
     166   56  1   0.96400     16.270790088300    -16.201554515600      3.614644642700
     167   56  2  -0.48200     16.502395020600    -16.646786428700      3.389638645280
     168   56  2  -0.48200     16.039185156000    -15.756322602500      3.839650640110
     169   57  1   0.96400     -7.951854689710     14.579246211000     -5.390673467020
     170   57  2  -0.48200     -7.486445211240     14.370211595000     -5.596096315490
     171   57  2  -0.48200     -8.417264168190     14.788280826900     -5.185250618550
     172   58  1   0.96400     -9.034603504500      2.241215363460    -19.287566931600
     173   58  2  -0.48200     -9.544509703120      2.079742442980    -19.415715925200
     174   58  2  -0.48200     -8.524697305870      2.402688283930    -19.159417938000
     175   59  1   0.96400     17.453742463700     20.459789148200     19.258902292000
     176   59  2  -0.48200     17.418990643100     19.929213539700     19.118254382000
     177   59  2  -0.48200     17.488494284300     20.990364756800     19.399550201900
     178   60  1   0.96400     -4.411133029860     17.086396149100     15.810259590900
     179   60  2  -0.48200     -4.278058754830     16.692501761200     16.170312987700
     180   60  2  -0.48200     -4.544207304900     17.480290536900     15.450206194100
     181   61  1   0.96400     -2.177158875160     -3.975544549690     -3.031250470630
     182   61  2  -0.48200     -2.603498308490     -3.904224086780     -2.691179773330
     183   61  2  -0.48200     -1.750819441830     -4.046865012600     -3.371321167930
     184   62  1   0.96400    -10.849336341800     -1.910709756500     -7.378766198030
     185   62  2  -0.48200    -10.754242482800     -1.779453805970     -7.904341153140
     186   62  2  -0.48200    -10.944430200800     -2.041965707030     -6.853191242920
     187   63  1   0.96400      5.624143758930    -13.782735527700    -20.392778412800
     188   63  2  -0.48200      5.177684673970    -13.477828493800    -20.493803093400
     189   63  2  -0.48200      6.070602843890    -14.087642561700    -20.291753732100
     190   64  1   0.96400     -7.642013947800      3.134363644930    -15.376222964800
     191   64  2  -0.48200     -7.793618372370      3.479767292510    -14.975957529500
     192   64  2  -0.48200     -7.490409523220      2.788959997360    -15.776488400100
     193   65  1   0.96400     -2.295158750770    -16.191695575700     -8.948341691280
     194   65  2  -0.48200     -2.743125961340    -16.137851124100     -8.633816408840
     195   65  2  -0.48200     -1.847191540200    -16.245540027200     -9.262866973720
     196   66  1   0.96400     12.454860444900      1.560722582120     -4.400192167660
     197   66  2  -0.48200     12.310815177700      1.218718685300     -3.994255848090
     198   66  2  -0.48200     12.598905712200      1.902726478940     -4.806128487230
     199   67  1   0.96400     -6.824080844210    -13.426285048800    -15.004896720100
     200   67  2  -0.48200     -6.947215619310    -13.754957092700    -14.581443635600
     201   67  2  -0.48200     -6.700946069110    -13.097613005000    -15.428349804500
     202   68  1   0.96400     15.876213008800      0.590766325146    -19.053639127100
     203   68  2  -0.48200     15.681283056500      1.064815952180    -19.253086525700
     204   68  2  -0.48200     16.071142961000      0.116716698109    -18.854191728400
     205   69  1   0.96400    -17.135269533700     10.681853406100     -7.391639496790
     206   69  2  -0.48200    -17.647533673400     10.881508793600     -7.376700372800
     207   69  2  -0.48200    -16.623005394000     10.482198018600     -7.406578620790
     208   70  1   0.96400     17.084788303900      6.643714946860     -2.012373366260
     209   70  2  -0.48200     17.440478178800      6.561909612150     -2.423825186160
     210   70  2  -0.48200     16.729098429000      6.725520281570     -1.600921546360
     211   71  1   0.96400     20.960335746400    -17.778587346000     20.674534117700
     212   71  2  -0.48200     21.102923704500    -17.247846319200     20.652565123500
     213   71  2  -0.48200     20.817747788200    -18.309328372700     20.696503112000
     214   72  1   0.96400    -11.259110551600    -17.946652975900    -16.516807583100
     215   72  2  -0.48200    -10.965830218700    -17.835270802200    -16.065054710700
     216   72  2  -0.48200    -11.552390884500    -18.058035149500    -16.968560455500
     217   73  1   0.96400    -16.180783643700    -18.828777056700     13.814558319400
     218   73  2  -0.48200    -16.585066485400    -18.576279687800     14.088967617000
     219   73  2  -0.48200    -15.776500802000    -19.081274425600     13.540149021700
     220   74  1   0.96400     19.876822217000     -6.146450685260     13.872876635900
     221   74  2  -0.48200     20.417821648400     -6.047406374900     13.876013480600
     222   74  2  -0.48200     19.335822785600     -6.245494995620     13.869739791300
     223   75  1   0.96400     11.801856447200    -12.777354083300     16.601497338700
     224   75  2  -0.48200     12.275036963200    -12.915091945200     16.845686774800
     225   75  2  -0.48200     11.328675931200    -12.639616221500     16.357307902600
     226   76  1   0.96400      8.395556697490     -3.928934826630    -15.828638470000
     227   76  2  -0.48200      8.203031189900     -3.896471891860    -16.342817511600
     228   76  2  -0.48200      8.588082205070     -3.961397761400    -15.314459428500
     229   77  1   0.96400      4.468899282800      9.872010269110     -9.888571476120
     230   77  2  -0.48200      4.333785833610      9.498759599010     -9.507876988220
     231   77  2  -0.48200      4.604012731980     10.245260939200    -10.269265964000
     232   78  1   0.96400     17.841391367400      3.435994967150    -19.404942142600
     233   78  2  -0.48200     17.903112136700      3.504796078840    -18.862764170300
     234   78  2  -0.48200     17.779670598100      3.367193855460    -19.947120114900
     235   79  1   0.96400     -7.256219869380    -19.015931672600     12.884327933700
     236   79  2  -0.48200     -7.022672599080    -18.908241572200     12.398160766200
     237   79  2  -0.48200     -7.489767139680    -19.123621773000     13.370495101300
     238   80  1   0.96400     -1.386205427460    -10.177897232300     11.876266980100
     239   80  2  -0.48200     -1.511485437050     -9.987100422590     11.375865644600
     240   80  2  -0.48200     -1.260925417870    -10.368694042100     12.376668315600
     241   81  1   0.96400     -4.706228273180     -4.579964113160      9.319260125050
     242   81  2  -0.48200     -4.791453303540     -4.962114986080      8.932999326470
     243   81  2  -0.48200     -4.621003242810     -4.197813240240      9.705520923640
     244   82  1   0.96400     -3.132645981200    -13.543508614000      9.374280877730
     245   82  2  -0.48200     -3.539248553160    -13.193850280100      9.496401301800
     246   82  2  -0.48200     -2.726043409240    -13.893166948000      9.252160453650
     247   83  1   0.96400    -18.121510329300    -15.076349748400     13.503818619100
     248   83  2  -0.48200    -18.666139022300    -14.999787738200     13.499594244800
     249   83  2  -0.48200    -17.576881636200    -15.152911758600     13.508042993400
     250   84  1   0.96400      6.377510067200     10.201190169900     12.571703777400
     251   84  2  -0.48200      6.925816547850     10.206593555100     12.528915850200
     252   84  2  -0.48200      5.829203586560     10.195786784700     12.614491704500
     253   85  1   0.96400     12.917021006900      8.124339143620      1.600462486780
     254   85  2  -0.48200     13.056455726100      7.605962043960      1.720225342520
     255   85  2  -0.48200     12.777586287600      8.642716243290      1.480699631040
     256   86  1   0.96400    -14.264025603700     -9.555716166520     -1.870752376650
     257   86  2  -0.48200    -14.079552397100     -9.041950337300     -1.937940982610
     258   86  2  -0.48200    -14.448498810400    -10.069481995700     -1.803563770680
     259   87  1   0.96400     16.497757734000    -11.203020294100     16.119458671800
     260   87  2  -0.48200     16.871665752100    -11.028874691100     15.755637145500
     261   87  2  -0.48200     16.123849716000    -11.377165897100     16.483280198100
     262   88  1   0.96400    -11.094692819900     -9.577137744560     16.232093911800
     263   88  2  -0.48200    -11.122819255300     -9.049263464860     16.383941363100
     264   88  2  -0.48200    -11.066566384600    -10.105012024300     16.080246460500
     265   89  1   0.96400     14.864217192400    -10.424977430900    -10.775884852900
     266   89  2  -0.48200     14.408386983700    -10.226285168200    -11.010917203000
     267   89  2  -0.48200     15.320047401100    -10.623669693600    -10.540852502700
     268   90  1   0.96400    -17.992971168300     -8.001611152930     21.024824156400
     269   90  2  -0.48200    -17.899997205600     -7.984421307190     20.483012056600
     270   90  2  -0.48200    -18.085945130900     -8.018800998670     21.566636256163
     271   91  1   0.96400    -19.816258907400     -0.633989997222     11.824339115500
     272   91  2  -0.48200    -20.236546759400     -0.976723611795     11.915945834300
     273   91  2  -0.48200    -19.395971055500     -0.291256382650     11.732732396700
     274   92  1   0.96400    -17.388563139500     20.407665229600      8.513132780060
     275   92  2  -0.48200    -17.762737632600     20.806668806400      8.570487765690
     276   92  2  -0.48200    -17.014388646300     20.008661652800      8.455777794430
     277   93  1   0.96400     14.541277052000    -12.196633408300     -6.540902738360
     278   93  2  -0.48200     14.938041846600    -12.147290462100     -6.163221693780
     279   93  2  -0.48200     14.144512257400    -12.245976354500     -6.918583782940
     280   94  1   0.96400      1.569422165860      4.336439367190    -10.948476527400
     281   94  2  -0.48200      1.866502528870      3.894688942960    -11.086678628000
     282   94  2  -0.48200      1.272341802840      4.778189791420    -10.810274426800
     283   95  1   0.96400     -1.982764739080     12.369084425800    -12.230382949400
     284   95  2  -0.48200     -1.573817741570     12.086221126500    -12.465437639100
     285   95  2  -0.48200     -2.391711736580     12.651947725100    -11.995328259600
     286   96  1   0.96400     12.804352493600      6.689968870520    -16.407267798700
     287   96  2  -0.48200     12.863479732000      6.520492235450    -16.927153978400
     288   96  2  -0.48200     12.745225255300      6.859445505590    -15.887381619000
     289   97  1   0.96400    -13.823768113000      0.848126597009    -19.462562784900
     290   97  2  -0.48200    -13.641876141700      0.913087234976    -19.977534071800
     291   97  2  -0.48200    -14.005660084300      0.783165959042    -18.947591498100
     292   98  1   0.96400     -9.829222762440      7.496632873110     -4.971284869930
     293   98  2  -0.48200     -9.879489273890      7.041952970780     -5.276636248250
     294   98  2  -0.48200     -9.778956251000      7.951312775450     -4.665933491620
     295   99  1   0.96400     -3.438738691000     12.371593811700     -2.103194679810
     296   99  2  -0.48200     -2.938048493510     12.352923437900     -1.876345074820
     297   99  2  -0.48200     -3.939428888490     12.390264185400     -2.330044284800
     298  100  1   0.96400    -16.044668441700    -20.145450649300      2.260667653000
     299  100  2  -0.48200    -15.502915534100    -20.070923550300      2.201935220850
     300  100  2  -0.48200    -16.586421349300    -20.219977748400      2.319400085140
     301  101  1   0.96400     15.509323136700     17.030982934100     -7.887881064790
     302  101  2  -0.48200     15.244440508900     16.750232257200     -7.496069565630
     303  101  2  -0.48200     15.774205764500     17.311733611100     -8.279692563940
     304  102  1   0.96400    -18.792435727000     13.798307885000      0.651167811287
     305  102  2  -0.48200    -18.760397838700     14.255306754400      0.346823258068
     306  102  2  -0.48200    -18.824473615200     13.341309015600      0.955512364507
     307  103  1   0.96400    -12.115384031400    -13.047601695800    -13.061027651000
     308  103  2  -0.48200    -12.139133174100    -12.533940923000    -12.865864671100
     309  103  2  -0.48200    -12.091634888700    -13.561262468600    -13.256190630900
     310  104  1   0.96400      8.955001573820     18.840848040300     -0.743563572963
     311  104  2  -0.48200      8.530796646230     18.986590876700     -1.061854642670
     312  104  2  -0.48200      9.379206501410     18.695105204000     -0.425272503255
     313  105  1   0.96400    -15.227022467100     17.163500838600     14.622564785000
     314  105  2  -0.48200    -15.079574622000     17.198226248600     15.151292766900
     315  105  2  -0.48200    -15.374470312200     17.128775428600     14.093836803000
     316  106  1   0.96400    -16.527470569400      6.464966677930     -9.822032822990
     317  106  2  -0.48200    -16.834626752900      6.493575487200     -9.366690517730
     318  106  2  -0.48200    -16.220314385900      6.436357868660    -10.277375128300
     319  107  1   0.96400     -9.315460682400     -1.467933896980     16.899202881200
     320  107  2  -0.48200     -9.578423488940     -0.990870073303     16.823303800100
     321  107  2  -0.48200     -9.052497875860     -1.944997720660     16.975101962300
     322  108  1   0.96400    -18.623832900800     17.221970970400     -9.967479998250
     323  108  2  -0.48200    -18.293180523600     16.793881048900     -9.867940937860
     324  108  2  -0.48200    -18.954485278100     17.650060891900    -10.067019058600
     325  109  1   0.96400     12.611017567300    -15.142462707600     19.969951411000
     326  109  2  -0.48200     13.114399404000    -15.203931464600     19.757046929000
     327  109  2  -0.48200     12.107635730700    -15.080993950500     20.182855892900
     328  110  1   0.96400     -3.814511941990    -11.515163757500      0.665086157785
     329  110  2  -0.48200     -4.071021153620    -11.766678800500      0.248621024197
     330  110  2  -0.48200     -3.558002730350    -11.263648714500      1.081551291370
     331  111  1   0.96400     19.105751639600      3.511888695670      7.783441168900
     332  111  2  -0.48200     19.120817849500      4.037990344640      7.623785087670
     333  111  2  -0.48200     19.090685429700      2.985787046710      7.943097250130
     334  112  1   0.96400     -2.816476225750      9.700485738440     -9.802926592420
     335  112  2  -0.48200     -2.696791074720     10.225808109100     -9.913433929120
     336  112  2  -0.48200     -2.936161376780      9.175163367740     -9.692419255710
     337  113  1   0.96400    -11.021906604400     20.844215065200    -10.435186956600
     338  113  2  -0.48200    -11.137400817800     21.065670648000    -10.925205845500
     339  113  2  -0.48200    -10.906412391000     20.622759482300     -9.945168067670
     340  114  1   0.96400    -18.275336237800     -9.289502132920     -0.939535426251