LAMMPS Atom File

         3000 atoms
         2000 bonds
         1000 angles
           0 dihedrals
           0 impropers

           2 atom types
           1 bond types
           1 angle types

         0.0  38.9969231553 xlo xhi
         0.0  38.9969231553 ylo yhi
         0.0  38.9969231553 zlo zhi

Masses

         1    1.0e-20
         2   14.00670

Atoms

       1    1  1   0.96400    -10.181809837700     14.585508608700      1.208439109630
       2    1  2  -0.48200    -10.204931168300     14.250240870200      0.773053134199
       3    1  2  -0.48200    -10.158688507200     14.920776347200      1.643825085070
       4    2  1   0.96400      6.713427162400     -1.787270880350     -1.568763836080
       5    2  2  -0.48200      6.643561755470     -2.183208514440     -1.193461005260
       6    2  2  -0.48200      6.783292569320     -1.391333246250     -1.944066666900
       7    3  1   0.96400     -9.923448360460    -16.398131951800     16.432601459700
       8    3  2  -0.48200    -10.201553810000    -16.397138936600     15.958095007800
       9    3  2  -0.48200     -9.645342910930    -16.399124966900     16.907107911600
      10    4  1   0.96400     14.553326059500    -16.211950307700     -1.598162100290
      11    4  2  -0.48200     14.506023687000    -15.751421441600     -1.895105948550
      12    4  2  -0.48200     14.600628432100    -16.672479173800     -1.301218252040
      13    5  1   0.96400    -10.691364421300     18.799603474200     -0.534396488962
      14    5  2  -0.48200    -10.607929039200     19.107792132800     -0.982233834181
      15    5  2  -0.48200    -10.774799803400     18.491414815700     -0.086559143743
      16    6  1   0.96400     -6.586042375840     15.114972754400    -14.974892734900
      17    6  2  -0.48200     -6.861696857500     14.914932555400    -15.406747485400
      18    6  2  -0.48200     -6.310387894190     15.315012953400    -14.543037984400
      19    7  1   0.96400     15.979167291300      4.647406572680     -3.269448333870
      20    7  2  -0.48200     16.285306078200      4.488609360150     -3.697890265140
      21    7  2  -0.48200     15.673028504500      4.806203785210     -2.841006402610
      22    8  1   0.96400     18.228595419900     -7.351710872200      4.612258259090
      23    8  2  -0.48200     18.577324540500     -7.178443699220      4.223842905110
      24    8  2  -0.48200     17.879866299300     -7.524978045180      5.000673613060
      25    9  1   0.96400      7.945864077750     12.188849155500    -16.899315466900
      26    9  2  -0.48200      8.114359616320     12.698038237900    -17.021117486000
      27    9  2  -0.48200      7.777368539190     11.679660073100    -16.777513447900
      28   10  1   0.96400     10.541024498200     -3.845655257320     19.441732508800
      29   10  2  -0.48200     11.035099443300     -4.085901793360     19.467646800200
      30   10  2  -0.48200     10.046949553000     -3.605408721280     19.415818217400
      31   11  1   0.96400     -0.370438569490     -2.400131267780    -10.625998262500
      32   11  2  -0.48200      0.049104698897     -2.480638859010    -10.972411272800
      33   11  2  -0.48200     -0.789981837877     -2.319623676540    -10.279585252200
      34   12  1   0.96400    -10.341984757000     -2.357848832690      7.825225270540
      35   12  2  -0.48200    -10.031426012400     -2.652349211830      7.479793956280
      36   12  2  -0.48200    -10.652543501500     -2.063348453560      8.170656584790
      37   13  1   0.96400    -10.497086640000    -13.390131480800     14.138332275000
      38   13  2  -0.48200    -10.184757631500    -13.388916108600     13.685619216500
      39   13  2  -0.48200    -10.809415648500    -13.391346852900     14.591045333500
      40   14  1   0.96400    -12.181968378500     -8.774447677170     10.423569288600
      41   14  2  -0.48200    -12.331411606100     -9.091265984020     10.847589196300
      42   14  2  -0.48200    -12.032525150800     -8.457629370320      9.999549380880
      43   15  1   0.96400     14.139656717000     17.227269554900    -17.577035337500
      44   15  2  -0.48200     13.840590185700     16.788980374100    -17.432253419400
      45   15  2  -0.48200     14.438723248400     17.665558735700    -17.721817255700
      46   16  1   0.96400     10.487749928100     16.172005376600     15.104340447000
      47   16  2  -0.48200     10.488209745200     16.229762652100     15.651299207500
      48   16  2  -0.48200     10.487290110900     16.114248101100     14.557381686500
      49   17  1   0.96400    -17.211323620500     19.210308036600      3.657866300530
      50   17  2  -0.48200    -17.509358641300     19.034409533400      4.085341262330
      51   17  2  -0.48200    -16.913288599700     19.386206539700      3.230391338730
      52   18  1   0.96400     -8.115000672500     -4.735904315770     15.386518763000
      53   18  2  -0.48200     -8.409487179190     -4.971285564310     14.986052328500
      54   18  2  -0.48200     -7.820514165810     -4.500523067220     15.786985197600
      55   19  1   0.96400      1.044833326460     -6.516937711730     17.677680424500
      56   19  2  -0.48200      0.658076221972     -6.440550530520     18.061195666300
      57   19  2  -0.48200      1.431590430950     -6.593324892930     17.294165182700
      58   20  1   0.96400    -11.488814050600     -1.101387892200    -15.191826933000
      59   20  2  -0.48200    -11.593177435600     -1.458528696150    -14.786785293100
      60   20  2  -0.48200    -11.384450665500     -0.744247088256    -15.596868572800
      61   21  1   0.96400     16.598238378200    -14.923203299200      9.709383703210
      62   21  2  -0.48200     17.019885882900    -14.576874292300      9.778445999580
      63   21  2  -0.48200     16.176590873500    -15.269532306100      9.640321406830
      64   22  1   0.96400      7.110616625030     -8.505951595190     10.655904488900
      65   22  2  -0.48200      7.332955710970     -8.774591497530     10.230583511600
      66   22  2  -0.48200      6.888277539100     -8.237311692840     11.081225466300
      67   23  1   0.96400     -5.201028256870     -7.876098885330      5.208012187070
      68   23  2  -0.48200     -5.448235519180     -7.384954161830      5.220874147870
      69   23  2  -0.48200     -4.953820994550     -8.367243608830      5.195150226260
      70   24  1   0.96400     -2.011513072020     -8.404708949540    -18.296844421400
      71   24  2  -0.48200     -1.993697943240     -8.101271385120    -17.838468739500
      72   24  2  -0.48200     -2.029328200790     -8.708146513950    -18.755220103200
      73   25  1   0.96400    -17.791594430100      5.176670828170    -12.139319374900
      74   25  2  -0.48200    -17.686524993900      4.859117161490    -11.702718776700
      75   25  2  -0.48200    -17.896663866400      5.494224494850    -12.575919973100
      76   26  1   0.96400    -17.312818689400     16.912459181500     -1.564327533550
      77   26  2  -0.48200    -17.711292040800     16.794957556300     -1.203893966500
      78   26  2  -0.48200    -16.914345337900     17.029960806700     -1.924761100590
      79   27  1   0.96400     -8.008621626670     -9.374954836590      9.385359247450
      80   27  2  -0.48200     -8.394995614080     -9.018265319850      9.546566351830
      81   27  2  -0.48200     -7.622247639260     -9.731644353330      9.224152143070
      82   28  1   0.96400      8.266562656580     -1.888239505320     13.093627126800
      83   28  2  -0.48200      8.202129174170     -2.172376920430     12.627135695300
      84   28  2  -0.48200      8.330996139000     -1.604102090220     13.560118558300
      85   29  1   0.96400     14.016230653100    -15.828967469800    -10.896837179400
      86   29  2  -0.48200     14.467881195300    -15.540462033800    -10.773239440500
      87   29  2  -0.48200     13.564580110800    -16.117472905800    -11.020434918300
      88   30  1   0.96400     -9.833237193240      0.973147867224      8.560723505150
      89   30  2  -0.48200     -9.733148742380      1.147102866190      8.048647377660
      90   30  2  -0.48200     -9.933325644090      0.799192868262      9.072799632640
      91   31  1   0.96400     14.722931058400     -6.165784322360    -12.692908604000
      92   31  2  -0.48200     14.647767107100     -5.948071445240    -12.193457421600
      93   31  2  -0.48200     14.798095009700     -6.383497199470    -13.192359786400
      94   32  1   0.96400    -15.558285603700      5.206823751660    -14.533177284100
      95   32  2  -0.48200    -15.637326325300      4.666882109540    -14.464507149100
      96   32  2  -0.48200    -15.479244882100      5.746765393770    -14.601847419100
      97   33  1   0.96400     16.582490659600     18.680905274000      9.859461569970
      98   33  2  -0.48200     16.914308843500     18.650656954100      9.421875313350
      99   33  2  -0.48200     16.250672475700     18.711153593900     10.297047826600
     100   34  1   0.96400      7.384443413560     17.333310918400     16.147912068800
     101   34  2  -0.48200      7.469681054700     17.692477321800     16.555630156600
     102   34  2  -0.48200      7.299205772430     16.974144515000     15.740193980900
     103   35  1   0.96400      4.918531171530     -5.732846016060      9.220095515300
     104   35  2  -0.48200      4.841549739790     -5.666671306490      8.679545085670
     105   35  2  -0.48200      4.995512603280     -5.799020725630      9.760645944940
     106   36  1   0.96400     13.494734866200    -17.886766852900    -17.515918726200
     107   36  2  -0.48200     13.453370880700    -17.812528846500    -16.972524082200
     108   36  2  -0.48200     13.536098851700    -17.961004859200    -18.059313370200
     109   37  1   0.96400     -9.191141195530    -17.336792072000      5.563115701520
     110   37  2  -0.48200     -9.564314810620    -17.573790795300      5.235895503270
     111   37  2  -0.48200     -8.817967580440    -17.099793348600      5.890335899770
     112   38  1   0.96400     -6.356071702710     -6.385017997190     18.676260085900
     113   38  2  -0.48200     -6.252322138420     -6.888824460370     18.870978024400
     114   38  2  -0.48200     -6.459821266990     -5.881211534020     18.481542147400
     115   39  1   0.96400     16.386437255300    -12.733901083900    -12.539579643600
     116   39  2  -0.48200     16.232302717000    -12.209781976700    -12.603154053900
     117   39  2  -0.48200     16.540571793600    -13.258020191000    -12.476005233300
     118   40  1   0.96400      0.984644952998     14.094177082200    -18.050079798600
     119   40  2  -0.48200      1.282438828860     14.175991808400    -18.505189849100
     120   40  2  -0.48200      0.686851077138     14.012362356000    -17.594969748100
     121   41  1   0.96400      2.588646786380      1.063555104990     -5.418617573080
     122   41  2  -0.48200      2.492165568300      1.602632746290     -5.469476900700
     123   41  2  -0.48200      2.685128004460      0.524477463684     -5.367758245460
     124   42  1   0.96400    -18.615345506700     -1.386015729840    -17.872046531700
     125   42  2  -0.48200    -18.302693861400     -1.709107196050    -17.555248720500
     126   42  2  -0.48200    -18.927997152000     -1.062924263630    -18.188844342900
     127   43  1   0.96400    -15.893982806900     18.566076531900     -4.333527312180
     128   43  2  -0.48200    -16.082216289700     18.056215011400     -4.417844486090
     129   43  2  -0.48200    -15.705749324100     19.075938052500     -4.249210138280
     130   44  1   0.96400     15.314732432400     10.812838999500      1.188347086010
     131   44  2  -0.48200     15.192392208400     10.933992489400      1.710702043390
     132   44  2  -0.48200     15.437072656300     10.691685509600      0.665992128634
     133   45  1   0.96400    -10.107830715100    -11.611134135000     18.840947182300
     134   45  2  -0.48200    -10.470670257500    -11.756474094500     18.454005632900
     135   45  2  -0.48200     -9.744991172700    -11.465794175500     19.227888731700
     136   46  1   0.96400     -4.220360342810     15.846495204000     -3.028705428600
     137   46  2  -0.48200     -4.470747067700     15.423370596900     -2.782185541110
     138   46  2  -0.48200     -3.969973617920     16.269619811000     -3.275225316090
     139   47  1   0.96400     12.650873710500     11.949715206700      4.785597667330
     140   47  2  -0.48200     12.530253622600     12.483144819000      4.727256918010
     141   47  2  -0.48200     12.771493798500     11.416285594300      4.843938416650
     142   48  1   0.96400     -5.771210771760     -6.326581353930     -5.028982549870
     143   48  2  -0.48200     -6.183858822300     -6.607548986380     -5.259804507010
     144   48  2  -0.48200     -5.358562721210     -6.045613721480     -4.798160592730
     145   49  1   0.96400      0.051075528292     -0.414008478564    -14.442328260400
     146   49  2  -0.48200      0.414791211744     -0.168333574133    -14.110884836900
     147   49  2  -0.48200     -0.312640155160     -0.659683382995    -14.773771683800
     148   50  1   0.96400    -18.090752009800     16.444692363200     -5.806348620410
     149   50  2  -0.48200    -17.641889829600     16.191190767100     -5.998076771650
     150   50  2  -0.48200    -18.539614190000     16.698193959200     -5.614620469170
     151   51  1   0.96400      0.708951638495      3.289607351300     10.784009206800
     152   51  2  -0.48200      1.017454134880      2.834544808800     10.768379359100
     153   51  2  -0.48200      0.400449142110      3.744669893800     10.799639054500
     154   52  1   0.96400     16.769434969800      7.179084594550     16.030951361500
     155   52  2  -0.48200     16.683075843000      7.433086133040     16.511081885000
     156   52  2  -0.48200     16.855794096600      6.925083056060     15.550820837900
     157   53  1   0.96400      2.443847984840     -7.636815886090     -5.482791595270
     158   53  2  -0.48200      2.729340580050     -7.775851464560     -5.931860728030
     159   53  2  -0.48200      2.158355389630     -7.497780307620     -5.033722462510
     160   54  1   0.96400     -5.421725443720      4.076966332580     -1.544337464120
     161   54  2  -0.48200     -5.923118660890      3.892428284180     -1.413759707680
     162   54  2  -0.48200     -4.920332226560      4.261504380990     -1.674915220550
     163   55  1   0.96400     -3.445338003830    -11.733967556900     -5.367800063030
     164   55  2  -0.48200     -3.373991256970    -12.260127152000     -5.224392524410
     165   55  2  -0.48200     -3.516684750690    -11.207807961700     -5.511207601660
     166   56  1   0.96400    -18.828885269400     -8.968003409280    -15.087618352600
     167   56  2  -0.48200    -18.306860191100     -8.797839970740    -15.055459033500
     168   56  2  -0.48200    -19.350910347700     -9.138166847830    -15.119777671800
     169   57  1   0.96400     -7.250357391300     -2.197248496950     -5.730656111390
     170   57  2  -0.48200     -7.091150496350     -1.674845571310     -5.665476759730
     171   57  2  -0.48200     -7.409564286240     -2.719651422590     -5.795835463050
     172   58  1   0.96400    -10.116689555100      3.643536213260     -8.498448098010
     173   58  2  -0.48200     -9.868744622430      3.165194968960     -8.387935816490
     174   58  2  -0.48200    -10.364634487700      4.121877457560     -8.608960379530
     175   59  1   0.96400     -4.983794774370     10.511082898200      5.003104921620
     176   59  2  -0.48200     -4.765133073200     10.687136140200      4.530143700800
     177   59  2  -0.48200     -5.202456475550     10.335029656100      5.476066142450
     178   60  1   0.96400    -17.383573957200    -12.377562729300      3.161687101210
     179   60  2  -0.48200    -16.919279494700    -12.618537263100      3.331575082290
     180   60  2  -0.48200    -17.847868419700    -12.136588195400      2.991799120120
     181   61  1   0.96400      5.797240988290      6.977187763160     -2.504528110400
     182   61  2  -0.48200      6.082541204630      6.845862601540     -2.053022309240
     183   61  2  -0.48200      5.511940771960      7.108512924780     -2.956033911560
     184   62  1   0.96400     -7.687111347820     13.008259216000     -1.586138618640
     185   62  2  -0.48200     -7.721763010640     13.290301984600     -2.057043215070
     186   62  2  -0.48200     -7.652459684990     12.726216447400     -1.115234022210
     187   63  1   0.96400     -7.086271505800      1.950493768910    -15.835176629200
     188   63  2  -0.48200     -6.809430070450      2.234946656370    -15.454459707500
     189   63  2  -0.48200     -7.363112941160      1.666040881450    -16.215893551000
     190   64  1   0.96400    -19.405333543100     16.967542902100     14.917629685300
     191   64  2  -0.48200    -19.801830081043     16.607049306400     15.041463698700
     192   64  2  -0.48200    -19.008837005200     17.328036497800     14.793795671900
     193   65  1   0.96400      3.279933210310      2.099968738310      3.677524627430
     194   65  2  -0.48200      3.100835626630      2.612235201600      3.588042081000
     195   65  2  -0.48200      3.459030794000      1.587702275030      3.767007173860
     196   66  1   0.96400     -0.397632087450     14.777366985000     10.300907708500
     197   66  2  -0.48200     -0.932929402374     14.900226730800     10.271543316500
     198   66  2  -0.48200      0.137665227474     14.654507239300     10.330272100500
     199   67  1   0.96400     -1.511620178710     -5.826499849980     -6.763162150450
     200   67  2  -0.48200     -1.912203634580     -5.473299484620     -6.631699620430
     201   67  2  -0.48200     -1.111036722850     -6.179700215330     -6.894624680470
     202   68  1   0.96400     13.248259005300     -1.018151989760     12.468198993400
     203   68  2  -0.48200     13.469403051900     -0.654389555512     12.119957407500
     204   68  2  -0.48200     13.027114958800     -1.381914424010     12.816440579200
     205   69  1   0.96400    -10.526090906300     -3.887123121080     -6.644256631020
     206   69  2  -0.48200    -10.795203725000     -3.922773004560     -7.122594771480
     207   69  2  -0.48200    -10.256978087600     -3.851473237610     -6.165918490550
     208   70  1   0.96400      9.165965009030    -13.423465155100    -16.712133623100
     209   70  2  -0.48200      9.641486562080    -13.225555800700    -16.905035515400
     210   70  2  -0.48200      8.690443455990    -13.621374509500    -16.519231730900
     211   71  1   0.96400     -8.630701975240      3.971865472240    -12.561475699200
     212   71  2  -0.48200     -8.324616581500      3.702808343930    -12.192124926300
     213   71  2  -0.48200     -8.936787368970      4.240922600540    -12.930826472100
     214   72  1   0.96400     -3.110000494640    -15.468492047200     -7.652740708910
     215   72  2  -0.48200     -3.309446798380    -14.978931556500     -7.500912852990
     216   72  2  -0.48200     -2.910554190900    -15.958052537900     -7.804568564830
     217   73  1   0.96400     14.606859921600      0.250900398239     -6.039308683620
     218   73  2  -0.48200     14.887072195100      0.532914494150     -6.419373324830
     219   73  2  -0.48200     14.326647648100     -0.031113697672     -5.659244042400
     220   74  1   0.96400     -6.533381538960    -13.051728779400    -16.513127683000
     221   74  2  -0.48200     -6.744777809740    -12.998588678000    -16.008164569200
     222   74  2  -0.48200     -6.321985268180    -13.104868880700    -17.018090796800
     223   75  1   0.96400     16.084428666600     -3.664542720870    -17.435730037500
     224   75  2  -0.48200     15.725881059100     -3.835636582920    -17.055374278400
     225   75  2  -0.48200     16.442976274100     -3.493448858820    -17.816085796700
     226   76  1   0.96400     -7.898583004070     14.546615450800     -8.222870234240
     227   76  2  -0.48200     -7.398894466830     14.317001069800     -8.232283087060
     228   76  2  -0.48200     -8.398271541310     14.776229831800     -8.213457381430
     229   77  1   0.96400     15.075455168700      9.019406863560     -2.230770854680
     230   77  2  -0.48200     15.120468539700      8.869040191040     -2.757898600330
     231   77  2  -0.48200     15.030441797800      9.169773536080     -1.703643109030
     232   78  1   0.96400     16.619165624100    -18.293582761000     15.670793837900
     233   78  2  -0.48200     16.764685378200    -17.845514678800     15.386964673000
     234   78  2  -0.48200     16.473645870000    -18.741650843300     15.954623002700
     235   79  1   0.96400     -8.378934188290    -17.038595527700    -16.227000026300
     236   79  2  -0.48200     -8.035827603790    -16.666434248600    -16.011886442100
     237   79  2  -0.48200     -8.722040772790    -17.410756806700    -16.442113610400
     238   80  1   0.96400    -18.100021972900     -4.584967288690     13.906259831500
     239   80  2  -0.48200    -18.075044165500     -4.052784844040     13.769665707400
     240   80  2  -0.48200    -18.124999780400     -5.117149733330     14.042853955600
     241   81  1   0.96400     12.506251582300     -8.170164766940     15.311350331800
     242   81  2  -0.48200     12.869213479300     -8.088430011700     14.906284792500
     243   81  2  -0.48200     12.143289685400     -8.251899522180     15.716415871100
     244   82  1   0.96400      7.131329618540     -4.133142134340    -13.691198946200
     245   82  2  -0.48200      6.630390335240     -3.951945819910    -13.554349649300
     246   82  2  -0.48200      7.632268901850     -4.314338448780    -13.828048243200
     247   83  1   0.96400      3.605437327510     11.125819094400     -7.607076152110
     248   83  2  -0.48200      3.666486319510     11.627223343700     -7.389437002690
     249   83  2  -0.48200      3.544388335500     10.624414845100     -7.824715301530
     250   84  1   0.96400     14.914154150400      0.600241672899     17.062024761800
     251   84  2  -0.48200     15.175659638400      0.562166899599     17.544378564900
     252   84  2  -0.48200     14.652648662300      0.638316446198     16.579670958700
     253   85  1   0.96400     -6.451183780560     18.725478250700     12.589115696200
     254   85  2  -0.48200     -6.627376077320     18.312014814600     12.272091625300
     255   85  2  -0.48200     -6.274991483810     19.138941686800     12.906139767200
     256   86  1   0.96400     -2.476769409210     -5.143998542540     12.618998178000
     257   86  2  -0.48200     -2.827554279350     -4.732713824040     12.517534612100
     258   86  2  -0.48200     -2.125984539070     -5.555283261030     12.720461744000
     259   87  1   0.96400     -1.692170878100    -12.022738231500      3.760409518190
     260   87  2  -0.48200     -1.917743195290    -12.381862572500      4.110619223100
     261   87  2  -0.48200     -1.466598560910    -11.663613890500      3.410199813270
     262   88  1   0.96400    -16.140281074300     -9.470743155980     18.650095371700
     263   88  2  -0.48200    -16.266852108400    -10.004186052300     18.606295261800
     264   88  2  -0.48200    -16.013710040200     -8.937300259600     18.693895481700
     265   89  1   0.96400      3.092728082530      7.291314010470     11.582587913900
     266   89  2  -0.48200      3.384997457050      7.019252826620     11.960822398000
     267   89  2  -0.48200      2.800458708000      7.563375194320     11.204353429800
     268   90  1   0.96400     13.198929474400      5.432499402560     -1.006802758600
     269   90  2  -0.48200     13.459886481300      5.769087455870     -0.658794248714
     270   90  2  -0.48200     12.937972467600      5.095911349240     -1.354811268480
     271   91  1   0.96400     -7.030960421650     -7.003995431500     -2.508531391660
     272   91  2  -0.48200     -7.332065196410     -7.443209820690     -2.646105498750
     273   91  2  -0.48200     -6.729855646900     -6.564781042300     -2.370957284570
     274   92  1   0.96400     16.825635560100    -12.204020895500     17.447893562200
     275   92  2  -0.48200     16.728060392200    -12.637541413900     17.123796282500
     276   92  2  -0.48200     16.923210728000    -11.770500377000     17.771990841900
     277   93  1   0.96400    -10.159572298300     -8.769924945680     14.863965530700
     278   93  2  -0.48200    -10.396438480000     -8.875647332780     15.348957477900
     279   93  2  -0.48200     -9.922706116550     -8.664202558580     14.378973583500
     280   94  1   0.96400     10.904257477100    -10.496920674200    -11.789869078800
     281   94  2  -0.48200     11.003948454700    -11.035269362300    -11.737501158800
     282   94  2  -0.48200     10.804566499500     -9.958571986170    -11.842236998800
     283   95  1   0.96400    -18.947142566000     -5.308342864360      9.628284834830
     284   95  2  -0.48200    -18.838048130800     -4.778990951290      9.526378228920
     285   95  2  -0.48200    -19.056237001200     -5.837694777440      9.730191440740
     286   96  1   0.96400    -13.838099654200     16.979311506000      5.502613138780
     287   96  2  -0.48200    -13.487313422400     17.032159466600      5.082308353340
     288   96  2  -0.48200    -14.188885885900     16.926463545500      5.922917924220
     289   97  1   0.96400     10.223891649700    -11.805399626000     -4.985804647810
     290   97  2  -0.48200     10.083006914500    -11.955655501100     -4.475829488210
     291   97  2  -0.48200     10.364776384900    -11.655143751000     -5.495779807400
     292   98  1   0.96400     -2.199580252140      5.655184342040    -12.436405541000
     293   98  2  -0.48200     -2.028761074020      5.771618100160    -12.946076011400
     294   98  2  -0.48200     -2.370399430250      5.538750583930    -11.926735070700
     295   99  1   0.96400     -1.428302035510      9.423426205930    -11.235638247100
     296   99  2  -0.48200     -0.945774696420      9.523847261750    -11.479734495700
     297   99  2  -0.48200     -1.910829374600      9.323005150120    -10.991541998500
     298  100  1   0.96400     11.361715452400      7.312319173330    -14.645845562400
     299  100  2  -0.48200     11.174434063400      7.432663163110    -15.148779957200
     300  100  2  -0.48200     11.548996841500      7.191975183550    -14.142911167700
     301  101  1   0.96400    -12.743662067900      1.093339158130    -18.506163339100
     302  101  2  -0.48200    -12.271332153600      0.902636133475    -18.713616486700
     303  101  2  -0.48200    -13.215991982100      1.284042182790    -18.298710191400
     304  102  1   0.96400     -7.134378162760     10.753182432800     -7.539718404760
     305  102  2  -0.48200     -6.989649667860     10.249991643100     -7.708100980910
     306  102  2  -0.48200     -7.279106657650     11.256373222500     -7.371335828610
     307  103  1   0.96400     -4.771040825230     12.510507875500     -3.663071397140
     308  103  2  -0.48200     -4.439012700730     12.561117479300     -3.227530362860
     309  103  2  -0.48200     -5.103068949730     12.459898271700     -4.098612431420
     310  104  1   0.96400    -13.090203732300    -17.713112498300     -0.052180705538
     311  104  2  -0.48200    -12.564577519800    -17.871348428900     -0.017851781495
     312  104  2  -0.48200    -13.615829944800    -17.554876567700     -0.086509629580
     313  105  1   0.96400     12.422255596600     13.210797356300     -3.831561748980
     314  105  2  -0.48200     12.585164151300     13.581464345600     -3.459316150210
     315  105  2  -0.48200     12.259347041800     12.840130366900     -4.203807347750
     316  106  1   0.96400    -18.269403538000     12.725654162800      0.450657699697
     317  106  2  -0.48200    -18.468947213700     12.430227395200      0.031843484983
     318  106  2  -0.48200    -18.069859862200     13.021080930400      0.869471914411
     319  107  1   0.96400     -6.579566033940    -13.453214103000     -6.464076709440
     320  107  2  -0.48200     -6.310181206860    -13.714926635700     -6.865870643090
     321  107  2  -0.48200     -6.848950861020    -13.191501570200     -6.062282775780
     322  108  1   0.96400      6.080482645530     16.335757877200      0.264004991089
     323  108  2  -0.48200      5.556993596820     16.234272047900      0.398763450300
     324  108  2  -0.48200      6.603971694240     16.437243706600      0.129246531879
     325  109  1   0.96400    -15.344204499700     17.125231272100     12.680389918300
     326  109  2  -0.48200    -14.825548588900     17.279291630000     12.779189980900
     327  109  2  -0.48200    -15.862860410400     16.971170914300     12.581589855600
     328  110  1   0.96400    -13.221336995600      5.775033479050     -7.733310822270
     329  110  2  -0.48200    -13.413102251600      5.807393380910     -7.218841266990
     330  110  2  -0.48200    -13.029571739500      5.742673577190     -8.247780377550
     331  111  1   0.96400     -9.644926978530     -0.361632612971     13.894456145000
     332  111  2  -0.48200     -9.811662955430     -0.606268215926     13.430934262300
     333  111  2  -0.48200     -9.478191001630     -0.116997010017     14.357978027800
     334  112  1   0.96400    -12.883263750200    -18.599406402700     15.311854021800
     335  112  2  -0.48200    -13.292384958000    -18.674955397600     14.952114968300
     336  112  2  -0.48200    -12.474142542300    -18.523857407800     15.671593075300
     337  113  1   0.96400    -16.825457785800    -17.600569246200    -10.181269309200
     338  113  2  -0.48200    -16.830771593900    -18.031002768900    -10.523612333000
     339  113  2  -0.48200    -16.820143977600    -17.170135723400     -9.838926285370
     340  114  1   0.96400     19.432489691600     13.220917809400     -8.738575323330