LAMMPS Atom File

         3000 atoms
         2000 bonds
         1000 angles
           0 dihedrals
           0 impropers

           2 atom types
           1 bond types
           1 angle types

         0.0  39.4725422635 xlo xhi
         0.0  39.4725422635 ylo yhi
         0.0  39.4725422635 zlo zhi

Masses

         1    1.0e-20
         2   14.00670

Atoms

       1    1  1   0.96400    -10.014541395800     12.796125776100      2.756428234890
       2    1  2  -0.48200    -10.005991317800     12.249495564700      2.816613849750
       3    1  2  -0.48200    -10.023091473900     13.342755987400      2.696242620030
       4    2  1   0.96400      5.874945500920     -2.029980493170     -1.967754765090
       5    2  2  -0.48200      6.264367769290     -1.853892941860     -1.621570607210
       6    2  2  -0.48200      5.485523232540     -2.206068044480     -2.313938922970
       7    3  1   0.96400    -10.522218576100    -18.377151308200     17.797856835600
       8    3  2  -0.48200    -10.384717464900    -18.513263618800     18.312703301400
       9    3  2  -0.48200    -10.659719687400    -18.241038997600     17.283010369900
      10    4  1   0.96400     11.867399932700    -18.858603663300     -2.716703144710
      11    4  2  -0.48200     11.550958957500    -19.292010568800     -2.596189396700
      12    4  2  -0.48200     12.183840907900    -18.425196757800     -2.837216892720
      13    5  1   0.96400    -12.404340767700    -18.627671617800      1.944902159970
      14    5  2  -0.48200    -12.828030194700    -18.357279579600      1.721574116160
      15    5  2  -0.48200    -11.980651340700    -18.898063656000      2.168230203780
      16    6  1   0.96400     -6.676435745250     13.958381595800    -16.889111330500
      17    6  2  -0.48200     -6.818131490880     14.002455887700    -16.359507919900
      18    6  2  -0.48200     -6.534739999620     13.914307303800    -17.418714741000
      19    7  1   0.96400     18.780850809200      3.232177978970     -0.891157881997
      20    7  2  -0.48200     19.156712915800      3.134371227370     -0.501720446517
      21    7  2  -0.48200     18.404988702600      3.329984730580     -1.280595317480
      22    8  1   0.96400     12.662703724800     -6.034078324320      4.231643460980
      23    8  2  -0.48200     12.577942619000     -5.927659539980      3.698735779220
      24    8  2  -0.48200     12.747464830600     -6.140497108660      4.764551142740
      25    9  1   0.96400      7.181514258400     17.116408545200    -17.014664206400
      26    9  2  -0.48200      7.455242818720     17.355844293600    -16.602058828800
      27    9  2  -0.48200      6.907785698090     16.876972796700    -17.427269584000
      28   10  1   0.96400      8.603011860090     -8.478792422270     16.365393199500
      29   10  2  -0.48200      8.319965155670     -8.069517029050     16.131132200500
      30   10  2  -0.48200      8.886058564510     -8.888067815480     16.599654198400
      31   11  1   0.96400     -0.436987358106     -2.572147954430    -12.529850926200
      32   11  2  -0.48200     -0.952756721241     -2.613921953210    -12.716229296900
      33   11  2  -0.48200      0.078782005030     -2.530373955650    -12.343472555500
      34   12  1   0.96400     -9.509759344720     -4.373387240280      3.618843226640
      35   12  2  -0.48200     -9.493538297110     -3.915774706570      3.923519524710
      36   12  2  -0.48200     -9.525980392330     -4.830999774000      3.314166928580
      37   13  1   0.96400     -9.107511293310    -12.501819375600     13.437629736700
      38   13  2  -0.48200     -9.150853651860    -12.574828013800     13.981036746900
      39   13  2  -0.48200     -9.064168934770    -12.428810737400     12.894222726600
      40   14  1   0.96400    -14.074256959500     -6.380429572160     12.078765186800
      41   14  2  -0.48200    -14.041884881800     -5.833618067920     12.029275516900
      42   14  2  -0.48200    -14.106629037200     -6.927241076400     12.128254856600
      43   15  1   0.96400     17.368924992700     14.713978227700     18.133123449200
      44   15  2  -0.48200     17.246419349300     14.182790924400     18.060100055100
      45   15  2  -0.48200     17.491430636100     15.245165531100     18.206146843300
      46   16  1   0.96400      7.232393123300     16.153804453500     12.932209592200
      47   16  2  -0.48200      7.673898088830     16.111395314000     13.257440018700
      48   16  2  -0.48200      6.790888157780     16.196213593100     12.606979165800
      49   17  1   0.96400     18.786531383100     15.605027195100      2.304697632860
      50   17  2  -0.48200     18.489402886300     15.410350311400      2.724597105820
      51   17  2  -0.48200     19.083659879900     15.799704078700      1.884798159910
      52   18  1   0.96400     -7.942423220380     -6.438689482340      6.486322318970
      53   18  2  -0.48200     -7.616304080000     -6.136935114000      6.162145503840
      54   18  2  -0.48200     -8.268542360750     -6.740443850690      6.810499134100
      55   19  1   0.96400      1.090667370570     -3.024222847330     16.512641590600
      56   19  2  -0.48200      0.767864953834     -3.387662012070     16.255327437700
      57   19  2  -0.48200      1.413469787310     -2.660783682590     16.769955743500
      58   20  1   0.96400    -12.862187822700     -4.595966854200    -16.627868501900
      59   20  2  -0.48200    -13.130749838900     -5.036238045030    -16.819011699400
      60   20  2  -0.48200    -12.593625806500     -4.155695663370    -16.436725304300
      61   21  1   0.96400     17.428857690200    -17.078350034300      7.069940240400
      62   21  2  -0.48200     17.609971770400    -17.356090775900      6.631126190450
      63   21  2  -0.48200     17.247743609900    -16.800609292800      7.508754290340
      64   22  1   0.96400     -3.190892722740     -9.639077285380      1.788584517140
      65   22  2  -0.48200     -3.075662023570    -10.176815346300      1.780860281270
      66   22  2  -0.48200     -3.306123421910     -9.101339224470      1.796308753010
      67   23  1   0.96400     -2.187873774200     -7.776227300720     19.302793014300
      68   23  2  -0.48200     -2.292612810340     -7.361578770180     18.956965990500
      69   23  2  -0.48200     -2.083134738050     -8.190875831260     19.648620038200
      70   24  1   0.96400    -17.885672213600      0.757404603926    -15.695931586700
      71   24  2  -0.48200    -17.381416050700      0.958686695678    -15.783745262600
      72   24  2  -0.48200    -18.389928376500      0.556122512174    -15.608117910800
      73   25  1   0.96400    -17.665388202600     17.115637070300     -2.271437742910
      74   25  2  -0.48200    -17.185851667500     16.856821605900     -2.196877251540
      75   25  2  -0.48200    -18.144924737700     17.374452534700     -2.345998234290
      76   26  1   0.96400     -7.123652474820    -10.110066073900      9.573517509520
      77   26  2  -0.48200     -7.565335989540    -10.204012955600      9.259527611220
      78   26  2  -0.48200     -6.681968960100    -10.016119192100      9.887507407820
      79   27  1   0.96400      9.804127028790     -2.664803065190     10.776659922900
      80   27  2  -0.48200      9.941084008920     -2.445151144420     11.261939037800
      81   27  2  -0.48200      9.667170048650     -2.884454985970     10.291380808100
      82   28  1   0.96400    -12.042083702700     -0.912989011955      3.353547459350
      83   28  2  -0.48200    -12.326684628000     -1.383576494820      3.346495205700
      84   28  2  -0.48200    -11.757482777400     -0.442401529089      3.360599712990
      85   29  1   0.96400     13.916888041000     -6.305138055240    -12.613175514000
      86   29  2  -0.48200     14.242581947900     -6.005040430430    -12.287039201200
      87   29  2  -0.48200     13.591194134100     -6.605235680050    -12.939311826900
      88   30  1   0.96400    -11.928969042500      5.521602908450    -15.019087718700
      89   30  2  -0.48200    -11.391537466000      5.405133457250    -15.029195510000
      90   30  2  -0.48200    -12.466400619100      5.638072359660    -15.008979927400
      91   31  1   0.96400     12.174006935800    -18.754981160500      5.972223256840
      92   31  2  -0.48200     12.600475573500    -18.412839601300      6.031919608910
      93   31  2  -0.48200     11.747538298000    -19.097122719800      5.912526904760
      94   32  1   0.96400    -15.721372975000     -4.166352866940      8.342658354840
      95   32  2  -0.48200    -15.645576432200     -4.367365761040      8.848967253150
      96   32  2  -0.48200    -15.797169517900     -3.965339972840      7.836349456540
      97   33  1   0.96400      8.084191904100    -17.510962460400     16.671068524800
      98   33  2  -0.48200      8.206499032410    -17.733506888700     17.158936277100
      99   33  2  -0.48200      7.961884775790    -17.288418032100     16.183200772400
     100   34  1   0.96400      3.061520977050     -8.026446143420      5.127177246630
     101   34  2  -0.48200      3.219843914630     -7.517971869860      5.264609995850
     102   34  2  -0.48200      2.903198039470     -8.534920416990      4.989744497410
     103   35  1   0.96400     14.077546780300    -18.845870260900    -16.031939026400
     104   35  2  -0.48200     14.558706213200    -19.073426598200    -15.893361562500
     105   35  2  -0.48200     13.596387347400    -18.618313923600    -16.170516490300
     106   36  1   0.96400    -11.639522199400    -12.415500949000      6.864043876810
     107   36  2  -0.48200    -11.931210417000    -12.455080034700      7.328642068440
     108   36  2  -0.48200    -11.347833981800    -12.375921863300      6.399445685170
     109   37  1   0.96400     -4.574122663460     -7.252152269890     15.325807850400
     110   37  2  -0.48200     -4.783555925940     -6.755202184320     15.217741569700
     111   37  2  -0.48200     -4.364689400980     -7.749102355460     15.433874131100
     112   38  1   0.96400     14.469154500100    -11.616132808500    -13.999351340400
     113   38  2  -0.48200     14.761879487600    -11.681144933700    -13.538281383400
     114   38  2  -0.48200     14.176429512600    -11.551120683400    -14.460421297500
     115   39  1   0.96400      0.140121099600     17.639097205500     16.121081154200
     116   39  2  -0.48200     -0.072867405618     17.226002876500     16.415171228800
     117   39  2  -0.48200      0.353109604819     18.052191534500     15.826991079600
     118   40  1   0.96400    -18.229316874600     -3.264446774640    -17.261933111000
     119   40  2  -0.48200    -17.932651279300     -3.283223361290    -17.724682464700
     120   40  2  -0.48200    -18.525982469900     -3.245670187980    -16.799183757200
     121   41  1   0.96400    -14.776495999500     16.616037341400     -7.792380032860
     122   41  2  -0.48200    -14.666392090900     16.627412535600     -7.253633585760
     123   41  2  -0.48200    -14.886599908100     16.604662147200     -8.331126479960
     124   42  1   0.96400     17.152381350700      9.306897662820      3.186190574500
     125   42  2  -0.48200     17.608728929400      9.149528850230      2.922596294830
     126   42  2  -0.48200     16.696033772100      9.464266475400      3.449784854170
     127   43  1   0.96400     -9.392702754010     -7.245105064030    -15.990445393900
     128   43  2  -0.48200     -8.935550974940     -7.033554122360    -15.769632237700
     129   43  2  -0.48200     -9.849854533070     -7.456656005700    -16.211258550200
     130   44  1   0.96400     -2.297131741480     18.072920800000     -4.619388277220
     131   44  2  -0.48200     -2.757231338560     17.799226659200     -4.493293558550
     132   44  2  -0.48200     -1.837032144400     18.346614940800     -4.745482995890
     133   45  1   0.96400     12.972384635900     10.382068969200      3.161815679410
     134   45  2  -0.48200     12.464510346800     10.454524892900      3.360092873430
     135   45  2  -0.48200     13.480258924900     10.309613045600      2.963538485390
     136   46  1   0.96400     -6.138020772310     -8.133942230470     -5.664931687510
     137   46  2  -0.48200     -6.649899605530     -7.956240788780     -5.570579911030
     138   46  2  -0.48200     -5.626141939090     -8.311643672150     -5.759283463990
     139   47  1   0.96400      0.591163078131      1.679483467840    -16.636628501400
     140   47  2  -0.48200      0.224848536388      1.519913189480    -17.014584825300
     141   47  2  -0.48200      0.957477619874      1.839053746190    -16.258672177500
     142   48  1   0.96400    -15.489247666400     19.224860332200    -10.099509707700
     143   48  2  -0.48200    -15.241438512100     19.601086268900    -10.415016708600
     144   48  2  -0.48200    -15.737056820600     18.848634395500     -9.784002706730
     145   49  1   0.96400     -1.445605427460      6.935067119770     11.871910643300
     146   49  2  -0.48200     -1.765660437580      7.122600131510     12.277984725200
     147   49  2  -0.48200     -1.125550417340      6.747534108030     11.465836561400
     148   50  1   0.96400     15.059622623600      6.100332716660     14.109629072500
     149   50  2  -0.48200     15.412078139000      6.025287841950     13.694125310300
     150   50  2  -0.48200     14.707167108100      6.175377591360     14.525132834700
     151   51  1   0.96400      0.147463972928     -8.094420527340     -5.835608126060
     152   51  2  -0.48200      0.035563186982     -7.723246958560     -5.445469181650
     153   51  2  -0.48200      0.259364758875     -8.465594096120     -6.225747070470
     154   52  1   0.96400     -2.727892537510    -12.718521801100     -4.533130883280
     155   52  2  -0.48200     -2.813398355760    -12.563743594600     -5.053930712250
     156   52  2  -0.48200     -2.642386719260    -12.873300007500     -4.012331054310
     157   53  1   0.96400     19.155841023700     -8.415830244740    -12.843916515900
     158   53  2  -0.48200     19.464625712900     -8.228699664190    -13.258807057500
     159   53  2  -0.48200     18.847056334400     -8.602960825300    -12.429025974300
     160   54  1   0.96400     -7.248508716140     -3.483335435800     -7.649531468320
     161   54  2  -0.48200     -7.110705505310     -4.009776493260     -7.569718636600
     162   54  2  -0.48200     -7.386311926980     -2.956894378350     -7.729344300050
     163   55  1   0.96400    -11.035114517100      4.971955664090     -7.055624304890
     164   55  2  -0.48200    -11.360693938800      5.318909965530     -6.779724408460
     165   55  2  -0.48200    -10.709535095300      4.625001362660     -7.331524201320
     166   56  1   0.96400    -17.765843421700    -11.492517474500      9.340919919480
     167   56  2  -0.48200    -17.838699203000    -10.950067007900      9.395137318540
     168   56  2  -0.48200    -17.692987640400    -12.034967941200      9.286702520430
     169   57  1   0.96400      4.438245468060      6.980181110670     -3.938924961570
     170   57  2  -0.48200      4.786656443190      6.890080762900     -4.354847694480
     171   57  2  -0.48200      4.089834492940      7.070281458450     -3.523002228670
     172   58  1   0.96400     -6.873592529540     14.333044665600      0.872257602098
     173   58  2  -0.48200     -7.316304263580     14.363453637600      1.197190849020
     174   58  2  -0.48200     -6.430880795500     14.302635693500      0.547324355173
     175   59  1   0.96400    -10.606398191600      4.446407207460    -18.760512533200
     176   59  2  -0.48200    -10.389657200400      3.941207014660    -18.777720320200
     177   59  2  -0.48200    -10.823139182800      4.951607400270    -18.743304746200
     178   60  1   0.96400     16.987355716700    -18.617549750600     15.243478827900
     179   60  2  -0.48200     17.180188201100    -18.905360730800     14.816301496300
     180   60  2  -0.48200     16.794523232400    -18.329738770300     15.670656159500
     181   61  1   0.96400      3.756708013790      1.613230708620      5.172612523040
     182   61  2  -0.48200      3.280569246330      1.546611544670      5.439733771000
     183   61  2  -0.48200      4.232846781250      1.679849872570      4.905491275070
     184   62  1   0.96400     -2.249161199480     16.930619656800     12.374592167600
     185   62  2  -0.48200     -2.369500507110     16.906947527500     12.910743341500
     186   62  2  -0.48200     -2.128821891860     16.954291786100     11.838440993600
     187   63  1   0.96400      4.598180648920     -5.762669721600     -1.426089368630
     188   63  2  -0.48200      4.847059618390     -5.753026921110     -0.935715761107
     189   63  2  -0.48200      4.349301679460     -5.772312522090     -1.916462976160
     190   64  1   0.96400      5.811848251450    -12.966718222200    -15.125715922900
     191   64  2  -0.48200      6.197956869620    -13.078680710000    -14.750370034100
     192   64  2  -0.48200      5.425739633270    -12.854755734400    -15.501061811800
     193   65  1   0.96400     -7.821411190330      6.094115831350    -13.137309609800
     194   65  2  -0.48200     -8.047212152510      5.809594808830    -12.724318431700
     195   65  2  -0.48200     -7.595610228150      6.378636853860    -13.550300788000
     196   66  1   0.96400     12.298915814200     -1.411188200560     -8.291873023630
     197   66  2  -0.48200     12.504601313000     -0.902893408003     -8.334650113880
     198   66  2  -0.48200     12.093230315400     -1.919482993130     -8.249095933380
     199   67  1   0.96400     -5.936410512440    -13.315611301900    -12.866946266400
     200   67  2  -0.48200     -5.932686853840    -12.822485514600    -12.623403473000
     201   67  2  -0.48200     -5.940134171050    -13.808737089300    -13.110489059800
     202   68  1   0.96400     14.281025732300     -0.438348595206    -15.600137775200
     203   68  2  -0.48200     14.624993904300     -0.591153488200    -16.001182113500
     204   68  2  -0.48200     13.937057560200     -0.285543702211    -15.199093436900
     205   69  1   0.96400    -11.592814694200     15.238703059300     -6.783482122080
     206   69  2  -0.48200    -11.544180008500     15.233477395400     -6.235661567720
     207   69  2  -0.48200    -11.641449380000     15.243928723200     -7.331302676440
     208   70  1   0.96400     16.613081309500      7.703816839850      0.120839022691
     209   70  2  -0.48200     16.427718187600      8.180581735500      0.322917589941
     210   70  2  -0.48200     16.798444431300      7.227051944200     -0.081239544559
     211   71  1   0.96400     15.057494556000    -14.467052735200     18.317449751700
     212   71  2  -0.48200     14.690142772800    -14.101501957000     18.501637959800
     213   71  2  -0.48200     15.424846339100    -14.832603513400     18.133261543700
     214   72  1   0.96400    -10.932498592200    -14.844903852200    -16.593404268700
     215   72  2  -0.48200    -11.102688003100    -14.624700211700    -17.067794320400
     216   72  2  -0.48200    -10.762309181200    -15.065107492800    -16.119014217100
     217   73  1   0.96400    -15.578825000400    -14.848586487400     11.721112316900
     218   73  2  -0.48200    -15.599743819000    -14.754380692100     11.179644246600
     219   73  2  -0.48200    -15.557906181800    -14.942792282700     12.262580387200
     220   74  1   0.96400      9.235291843020    -10.524938938600     11.237210356700
     221   74  2  -0.48200      8.864497717730    -10.215186664100     10.974407683500
     222   74  2  -0.48200      9.606085968310    -10.834691213200     11.500013029900
     223   75  1   0.96400      8.508023494030     -7.524235914570    -12.418373527200
     224   75  2  -0.48200      8.096704209960     -7.800557763030    -12.657042089500
     225   75  2  -0.48200      8.919342778110     -7.247914066110    -12.179704965000
     226   76  1   0.96400      5.235758816460     12.516894030600     -5.538014489260
     227   76  2  -0.48200      5.506386587320     12.322857813200     -5.100281058990
     228   76  2  -0.48200      4.965131045600     12.710930248000     -5.975747919530
     229   77  1   0.96400     -8.168840906710     17.059828448400     10.502762801800
     230   77  2  -0.48200     -8.297745901260     17.275549424300     10.013530788400
     231   77  2  -0.48200     -8.039935912160     16.844107472500     10.991994815200
     232   78  1   0.96400      0.299367067211     -6.739186930080     15.580627938100
     233   78  2  -0.48200     -0.199629833308     -6.540988877780     15.461381867600
     234   78  2  -0.48200      0.798363967729     -6.937384982380     15.699874008700
     235   79  1   0.96400     -3.722366084790    -15.986122018500      5.839421495520
     236   79  2  -0.48200     -3.622675107210    -16.524470706500      5.891789415520
     237   79  2  -0.48200     -3.822057062380    -15.447773330400      5.787053575520
     238   80  1   0.96400    -16.395556989000    -11.846841863500     16.206580059600
     239   80  2  -0.48200    -16.861152920200    -11.578179919000     16.090213447500
     240   80  2  -0.48200    -15.929961057700    -12.115503808000     16.322946671700
     241   81  1   0.96400      6.492611498240      8.690405241600     10.749883300900
     242   81  2  -0.48200      6.871977528600      8.292670733230     10.769598164700
     243   81  2  -0.48200      6.113245467870      9.088139749980     10.730168437100
     244   82  1   0.96400      8.892931121290      8.003430642780      1.819453546860
     245   82  2  -0.48200      8.585977019940      7.761510907270      1.432472899750
     246   82  2  -0.48200      9.199885222640      8.245350378290      2.206434193970
     247   83  1   0.96400    -12.055281051400     -8.444260884350     -2.904336495240
     248   83  2  -0.48200    -12.224735341900     -7.934592361690     -3.022756258930
     249   83  2  -0.48200    -11.885826760900     -8.953929407000     -2.785916731560
     250   84  1   0.96400     18.597426024500     -9.448261719790     12.763427741700
     251   84  2  -0.48200     18.634460480800     -9.037711050720     13.127538435200
     252   84  2  -0.48200     18.560391568200     -9.858812388860     12.399317048100
     253   85  1   0.96400    -12.238903484800     -8.024562436980     18.449190063800
     254   85  2  -0.48200    -12.627737457100     -8.020869610370     18.838156007100
     255   85  2  -0.48200    -11.850069512400     -8.028255263590     18.060224120600
     256   86  1   0.96400      9.656688163920    -15.153322636400    -10.099346096200
     257   86  2  -0.48200      9.845319044960    -15.405514192100    -10.550253858300
     258   86  2  -0.48200      9.468057282880    -14.901131080700     -9.648438334060
     259   87  1   0.96400    -18.370710122000     -3.595342049850     10.295922414700
     260   87  2  -0.48200    -18.683105984800     -3.143335814560     10.320400735600
     261   87  2  -0.48200    -18.058314259300     -4.047348285140     10.271444093900
     262   88  1   0.96400    -16.931951718200     17.780915024900      7.839996511840
     263   88  2  -0.48200    -16.678131226200     17.292988026300      7.838446707100
     264   88  2  -0.48200    -17.185772210100     18.268842023500      7.841546316570
     265   89  1   0.96400     13.258738156800    -10.575064777600     -2.851437003670
     266   89  2  -0.48200     13.394408774800    -10.551351678100     -3.383913456030
     267   89  2  -0.48200     13.123067538800    -10.598777877100     -2.318960551310
     268   90  1   0.96400     -0.738808931610      2.783964821260     -6.544589897330
     269   90  2  -0.48200     -0.332862484101      2.997321199440     -6.240967537080
     270   90  2  -0.48200     -1.144755379120      2.570608443090     -6.848212257590
     271   91  1   0.96400     -6.959613062010      9.914738921090    -14.480083915000
     272   91  2  -0.48200     -6.776348439310      9.397380619900    -14.444665469900
     273   91  2  -0.48200     -7.142877684700     10.432097222300    -14.515502360100
     274   92  1   0.96400     13.538565754800      3.856544642050    -12.842031455200
     275   92  2  -0.48200     13.521838332300      3.568277596840    -13.310136469000
     276   92  2  -0.48200     13.555293177400      4.144811687260    -12.373926441400
     277   93  1   0.96400    -13.846408710500     -0.332694289461    -16.207199998300
     278   93  2  -0.48200    -14.225128149100      0.031375113950    -16.370065146000
     279   93  2  -0.48200    -13.467689271900     -0.696763692871    -16.044334850600
     280   94  1   0.96400     -9.527199585660     12.455874348100     -0.920177771287
     281   94  2  -0.48200     -9.465868876360     12.949112437800     -0.684689489309
     282   94  2  -0.48200     -9.588530294950     11.962636258400     -1.155666053270
     283   95  1   0.96400     -3.439559209440     10.142128852400     -0.763535810546
     284   95  2  -0.48200     -3.110691450550     10.261449387800     -0.339143766563
     285   95  2  -0.48200     -3.768426968340     10.022808317000     -1.187927854530
     286   96  1   0.96400    -15.873827693100    -18.325285393800      0.315301657792
     287   96  2  -0.48200    -16.098588877900    -17.944295439700     -0.011545500245
     288   96  2  -0.48200    -15.649066508400    -18.706275347900      0.642148815829
     289   97  1   0.96400     10.399097481200     13.860552400800     -7.666751356180
     290   97  2  -0.48200     10.515167805200     13.430824029800     -7.989801208430
     291   97  2  -0.48200     10.283027157100     14.290280771800     -7.343701503930
     292   98  1   0.96400    -17.484983056100     12.244209974100     -0.227289296645
     293   98  2  -0.48200    -17.709525268200     11.742133657000     -0.227697733088
     294   98  2  -0.48200    -17.260440843900     12.746286291100     -0.226880860201
     295   99  1   0.96400    -13.538036074800    -18.718514853500     12.313649483100
     296   99  2  -0.48200    -13.452525586800    -19.261423370000     12.292713886000
     297   99  2  -0.48200    -13.623546562800    -18.175606337100     12.334585080200
     298  100  1   0.96400    -19.088754470900      8.294875261330     -6.724139565450
     299  100  2  -0.48200    -19.290540731000      8.303619563730     -7.235711498230
     300  100  2  -0.48200    -18.886968210800      8.286130958940     -6.212567632680
     301  101  1   0.96400    -10.060970348300     -1.663160808570     13.418464811900
     302  101  2  -0.48200     -9.927013533630     -2.068935476630     13.764734202100
     303  101  2  -0.48200    -10.194927163000     -1.257386140500     13.072195421800
     304  102  1   0.96400    -12.691810656000    -13.534798099100     14.309073075200
     305  102  2  -0.48200    -12.392534172500    -13.140068425200     14.548075315700
     306  102  2  -0.48200    -12.991087139500    -13.929527773000     14.070070834600
     307  103  1   0.96400     14.554671899400    -14.034169464500     -7.655943572170
     308  103  2  -0.48200     14.484889574900    -13.879240385800     -7.132849500530
     309  103  2  -0.48200     14.624454223900    -14.189098543100     -8.179037643800
     310  104  1   0.96400     19.625149081200     12.152115132100     -7.200336945410
     311  104  2  -0.48200     19.866419242732     12.346242273600     -6.745800519940
     312  104  2  -0.48200     19.383878919700     11.957987990600     -7.654873370880
     313  105  1   0.96400      9.879910991450    -12.427222435700    -19.523917874700
     314  105  2  -0.48200      9.764231991200    -12.036205183400    -19.893003064532
     315  105  2  -0.48200      9.995589991690    -12.818239687900    -19.154832684900
     316  106  1   0.96400     -0.311396699877    -12.255948945800     -1.713122112470
     317  106  2  -0.48200     -0.015725074591    -12.112171965900     -2.154037603280
     318  106  2  -0.48200     -0.607068325162    -12.399725925700     -1.272206621650
     319  107  1   0.96400     16.660282821200      0.693418892502      3.282156976060
     320  107  2  -0.48200     16.286820823600      0.761862560827      3.680078577130
     321  107  2  -0.48200     17.033744818800      0.624975224178      2.884235375000
     322  108  1   0.96400    -13.867412276000     -2.424308128480     12.113329973300
     323  108  2  -0.48200    -14.073490972400     -2.187045410400     12.564703403500
     324  108  2  -0.48200    -13.661333579500     -2.661570846560     11.661956543100
     325  109  1   0.96400      7.221420064180      6.182886093260     14.009324377100
     326  109  2  -0.48200      7.548967536810      6.119672916270     14.446607749100
     327  109  2  -0.48200      6.893872591560      6.246099270240     13.572041005100
     328  110  1   0.96400     -7.555992653360     17.794453656100     -7.241479903140
     329  110  2  -0.48200     -7.938947615100     17.437989641100     -7.411123362470
     330  110  2  -0.48200     -7.173037691620     18.150917671100     -7.071836443810
     331  111  1   0.96400     19.386008701700    -12.931786865900     -5.431137847390
     332  111  2  -0.48200     19.608336683200    -12.818681328800     -4.940956854170
     333  111  2  -0.48200     19.163680720200    -13.044892403100     -5.921318840600
     334  112  1   0.96400      9.021089740570    -15.313345126500      3.032958596630
     335  112  2  -0.48200      9.009923489880    -15.703354610700      3.420602656350
     336  112  2  -0.48200      9.032255991270    -14.923335642200      2.645314536910
     337  113  1   0.96400      5.115470089580    -16.516970273000      2.851399253580
     338  113  2  -0.48200      4.816375357870    -16.978523137000      2.848038424540
     339  113  2  -0.48200      5.414564821280    -16.055417409000      2.854760082620
     340  114  1   0.96400     17.449514669900     10.590251302800    -19.551647021700