LAMMPS Atom File

         3000 atoms
         2000 bonds
         1000 angles
           0 dihedrals
           0 impropers

           2 atom types
           1 bond types
           1 angle types

         0.0  87.2508534182 xlo xhi
         0.0  87.2508534182 ylo yhi
         0.0  87.2508534182 zlo zhi

Masses

         1    1.0e-20
         2   14.00670

Atoms

       1    1  1   0.96400    -24.860022279400     35.156480296400     10.479970925800
       2    1  2  -0.48200    -24.883143610000     34.821212557900     10.044584950400
       3    1  2  -0.48200    -24.836900948900     35.491748034900     10.915356901300
       4    2  1   0.96400     21.098382526500     -1.572664778000      5.342360238330
       5    2  2  -0.48200     20.750851617600     -1.149446332770      5.291287594610
       6    2  2  -0.48200     21.445913435400     -1.995883223240      5.393432882050
       7    3  1   0.96400    -25.305050124800     40.768119098500     38.910267438300
       8    3  2  -0.48200    -24.798618932600     40.834043340500     39.114427772200
       9    3  2  -0.48200    -25.811481317000     40.702194856500     38.706107104500
      10    4  1   0.96400     26.068802641200    -35.463571296000     -7.323777119870
      11    4  2  -0.48200     26.021500268700    -35.003042429900     -7.620720968120
      12    4  2  -0.48200     26.116105013800    -35.924100162100     -7.026833271610
      13    5  1   0.96400    -15.053695735700    -41.992573247400      5.300489074510
      14    5  2  -0.48200    -14.810929575700    -42.072539752100      5.787490049580
      15    5  2  -0.48200    -15.296461895600    -41.912606742800      4.813488099450
      16    6  1   0.96400    -13.076685303800     41.178900745800     42.575265733100
      17    6  2  -0.48200    -13.534117870600     40.876146736300     42.615208899900
      18    6  2  -0.48200    -12.619252737000     41.481654755200     42.535322566300
      19    7  1   0.96400     36.020977912400     10.795402983400     -0.104195516363
      20    7  2  -0.48200     36.199151442000     11.296979320900     -0.242670680356
      21    7  2  -0.48200     35.842804382900     10.293826645900      0.034279647629
      22    8  1   0.96400     34.639972337300     -9.390999999330     14.394558591400
      23    8  2  -0.48200     34.798421402900     -9.839466725520     14.118385658000
      24    8  2  -0.48200     34.481523271800     -8.942533273150     14.670731524800
      25    9  1   0.96400     15.422967161900     26.715374902000    -38.336135450900
      26    9  2  -0.48200     15.177118904900     26.386959483100    -38.702471290200
      27    9  2  -0.48200     15.668815418900     27.043790321000    -37.969799611700
      28   10  1   0.96400     26.357304657900     -8.416486866620     38.707835380500
      29   10  2  -0.48200     26.851379603000     -8.656733402670     38.733749671900
      30   10  2  -0.48200     25.863229712800     -8.176240330580     38.681921089100
      31   11  1   0.96400     -1.576329944090    -13.525035663600    -29.090176356000
      32   11  2  -0.48200     -2.039419251800    -13.607513226000    -29.375212748000
      33   11  2  -0.48200     -1.113240636380    -13.442558101200    -28.805139963900
      34   12  1   0.96400    -19.565642799600    -13.002629791600     13.564002664200
      35   12  2  -0.48200    -19.311891677400    -12.523256543700     13.472834374300
      36   12  2  -0.48200    -19.819393921900    -13.482003039600     13.655170954100
      37   13  1   0.96400    -24.059575580600    -32.819056739600     31.659401793400
      38   13  2  -0.48200    -23.747246572100    -32.817841367500     31.206688734900
      39   13  2  -0.48200    -24.371904589100    -32.820272111700     32.112114851800
      40   14  1   0.96400    -29.083284288200    -17.903390926500     27.690436193700
      41   14  2  -0.48200    -29.201314571200    -17.397860571400     27.508755395800
      42   14  2  -0.48200    -28.965254005300    -18.408921281700     27.872116991500
      43   15  1   0.96400     29.943290996000     33.911002641900    -41.365221366300
      44   15  2  -0.48200     30.298038701200     33.491607309900    -41.337623881400
      45   15  2  -0.48200     29.588543290900     34.330397973900    -41.392818851200
      46   16  1   0.96400     17.399851355800     35.039523409600     35.974597700900
      47   16  2  -0.48200     17.257449961900     35.130514818100     36.497992777900
      48   16  2  -0.48200     17.542252749700     34.948532001200     35.451202624000
      49   17  1   0.96400    -36.917143492200    -41.981250338600     11.265941532000
      50   17  2  -0.48200    -37.339527431000    -41.682320919700     11.452309476500
      51   17  2  -0.48200    -36.494759553400    -42.280179757600     11.079573587500
      52   18  1   0.96400    -19.588916634300    -10.983199779800     19.436771780300
      53   18  2  -0.48200    -19.222289969600    -11.270137615500     19.143938095100
      54   18  2  -0.48200    -19.955543299000    -10.696261944100     19.729605465500
      55   19  1   0.96400     -3.610671929180     -3.005801978260     23.284937754500
      56   19  2  -0.48200     -3.712989190170     -2.602906811270     23.645085866400
      57   19  2  -0.48200     -3.508354668190     -3.408697145260     22.924789642600
      58   20  1   0.96400    -29.398635105500    -11.258141271900    -33.920883651100
      59   20  2  -0.48200    -29.429768390600    -11.292635453900    -33.372850011700
      60   20  2  -0.48200    -29.367501820500    -11.223647089800    -34.468917290600
      61   21  1   0.96400     37.925391094300    -36.211455607000     18.409682137500
      62   21  2  -0.48200     37.952449491100    -35.710850132300     18.635872326900
      63   21  2  -0.48200     37.898332697500    -36.712061081800     18.183491948000
      64   22  1   0.96400     10.110985193300    -17.360575964800     31.885252945600
      65   22  2  -0.48200     10.217965940400    -17.135641627900     32.375619812200
      66   22  2  -0.48200     10.004004446300    -17.585510301600     31.394886079000
      67   23  1   0.96400    -17.315478243100    -22.380732440900      5.507188100870
      68   23  2  -0.48200    -17.745838547400    -22.410949090100      5.848328779500
      69   23  2  -0.48200    -16.885117938800    -22.350515791600      5.166047422240
      70   24  1   0.96400     -2.177376807440     -9.094457684540     40.445319580500
      71   24  2  -0.48200     -1.934550183310     -8.951410376120     40.917625305800
      72   24  2  -0.48200     -2.420203431560     -9.237504992950     39.973013855100
      73   25  1   0.96400    -31.507870470600      5.058338965550    -31.357485175800
      74   25  2  -0.48200    -31.490055341800      5.361776529960    -30.899109494000
      75   25  2  -0.48200    -31.525685599400      4.754901401130    -31.815860857700
      76   26  1   0.96400    -40.863573772400     39.558414951300     -0.178933565619
      77   26  2  -0.48200    -40.359422438900     39.771664422600     -0.232376019326
      78   26  2  -0.48200    -41.367725105900     39.345165480000     -0.125491111912
      79   27  1   0.96400    -16.139979943000     42.698109197200     -6.343800353220
      80   27  2  -0.48200    -16.675432677100     42.753048123400     -6.456813997790
      81   27  2  -0.48200    -15.604527208800     42.643170271000     -6.230786708650
      82   28  1   0.96400    -11.883593717100    -23.858585866700     25.906239310400
      83   28  2  -0.48200    -11.673781314000    -23.573068163300     25.485575077800
      84   28  2  -0.48200    -12.093406120100    -24.144103570100     26.326903542900
      85   29  1   0.96400     20.085499749600     -7.804618847250     22.753416859500
      86   29  2  -0.48200     19.634284434600     -8.093466310720     22.629030837700
      87   29  2  -0.48200     20.536715064500     -7.515771383770     22.877802881400
      88   30  1   0.96400     38.112120191100    -31.423033211800    -21.702708454700
      89   30  2  -0.48200     37.700533395100    -31.080122782300    -21.827242573500
      90   30  2  -0.48200     38.523706987000    -31.765943641300    -21.578174336000
      91   31  1   0.96400    -24.228082379100      6.714346113150     16.450667103400
      92   31  2  -0.48200    -24.078858463600      6.716218368560     16.980033439500
      93   31  2  -0.48200    -24.377306294500      6.712473857730     15.921300767400
      94   32  1   0.96400     37.615746240800    -19.371299195500    -33.973795714100
      95   32  2  -0.48200     37.818194341500    -18.864053353300    -33.908861731100
      96   32  2  -0.48200     37.413298140000    -19.878545037600    -34.038729697000
      97   33  1   0.96400    -42.336681555100     15.683078659000    -34.064685120000
      98   33  2  -0.48200    -41.997438969000     15.265439479700    -33.950702736500
      99   33  2  -0.48200    -42.675924141100     16.100717838300    -34.178667503500
     100   34  1   0.96400     24.664367130900    -41.554710884500     16.167931113800
     101   34  2  -0.48200     25.106923097300    -41.876741915200     16.113707208600
     102   34  2  -0.48200     24.221811164500    -41.232679853800     16.222155019100
     103   35  1   0.96400    -28.251865046400    -10.977834441200     16.866931865600
     104   35  2  -0.48200    -27.936720723700    -10.527799454300     16.892477244700
     105   35  2  -0.48200    -28.567009369100    -11.427869428200     16.841386486600
     106   36  1   0.96400     25.046703004600     34.501592957400     41.639753770600
     107   36  2  -0.48200     24.949065565000     34.727313839700     42.131706017900
     108   36  2  -0.48200     25.144340444100     34.275872075000     41.147801523200
     109   37  1   0.96400     12.644290037800    -16.544709463900     19.914245479800
     110   37  2  -0.48200     12.660370760900    -17.094473225000     19.913142154400
     111   37  2  -0.48200     12.628209314700    -15.994945702800     19.915348805100
     112   38  1   0.96400     30.679166529200    -39.556812949600    -37.102556914800
     113   38  2  -0.48200     30.737095501900    -40.026000585100    -36.821474726100
     114   38  2  -0.48200     30.621237556500    -39.087625314100    -37.383639103500
     115   39  1   0.96400    -19.942714420400    -33.735529384600      9.237807504350
     116   39  2  -0.48200    -20.475478440500    -33.751108544600      9.102087982200
     117   39  2  -0.48200    -19.409950400400    -33.719950224600      9.373527026500
     118   40  1   0.96400    -12.046170203500    -16.565485491700     37.570922973000
     119   40  2  -0.48200    -12.351293490300    -17.014706698100     37.483744491500
     120   40  2  -0.48200    -11.741046916700    -16.116264285400     37.658101454400
     121   41  1   0.96400     36.205071331600    -25.468719731300    -29.421258635200
     122   41  2  -0.48200     36.416507568600    -25.344411859000    -29.913541349300
     123   41  2  -0.48200     35.993635094500    -25.593027603600    -28.928975921200
     124   42  1   0.96400      4.599002395690     32.673172546000     39.006436955300
     125   42  2  -0.48200      4.132518691460     32.815827313800     38.752384655700
     126   42  2  -0.48200      5.065486099920     32.530517778300     39.260489254900
     127   43  1   0.96400      7.897102439080      7.965609534520    -12.465236770300
     128   43  2  -0.48200      7.925588195780      7.547145086360    -12.109461465800
     129   43  2  -0.48200      7.868616682380      8.384073982670    -12.821012074800
     130   44  1   0.96400    -43.622755845900     -9.630909644990     43.149992506100
     131   44  2  -0.48200    -43.722306084260    -10.003456780100     43.542163874500
     132   44  2  -0.48200    -43.523205607600     -9.258362509870     42.757821137800
     133   45  1   0.96400    -26.131032593400     31.938383279800     -6.103746858550
     134   45  2  -0.48200    -26.126194422100     31.744747512300     -5.588983047020
     135   45  2  -0.48200    -26.135870764800     32.132019047300     -6.618510670080
     136   46  1   0.96400     35.537645965200     25.808336742900      9.453792245520
     137   46  2  -0.48200     35.307083345800     26.270807293900      9.265479027700
     138   46  2  -0.48200     35.768208584600     25.345866191900      9.642105463340
     139   47  1   0.96400    -24.437756635400    -18.589339803000    -35.508937446200
     140   47  2  -0.48200    -24.237023462400    -18.254249598900    -35.121741438500
     141   47  2  -0.48200    -24.638489808400    -18.924430007100    -35.896133453900
     142   48  1   0.96400     -6.667347753870     36.203561628200    -13.299179495900
     143   48  2  -0.48200     -6.265786178240     35.827957605100    -13.312214787900
     144   48  2  -0.48200     -7.068909329500     36.579165651200    -13.286144204000
     145   49  1   0.96400     28.514599946300     23.366721545100      3.975728127360
     146   49  2  -0.48200     29.031085274800     23.198836667000      4.062662431110
     147   49  2  -0.48200     27.998114617800     23.534606423200      3.888793823620
     148   50  1   0.96400    -13.152097925100    -14.231963771500    -18.904233754300
     149   50  2  -0.48200    -12.748776772400    -13.875871409800    -19.018383996100
     150   50  2  -0.48200    -13.555419077800    -14.588056133200    -18.790083512500
     151   51  1   0.96400     -0.986215399976     -1.080911780950    -29.960242273400
     152   51  2  -0.48200     -0.847460392761     -0.555965723093    -29.872614171100
     153   51  2  -0.48200     -1.124970407190     -1.605857838800    -30.047870375700
     154   52  1   0.96400    -30.261991069100     42.801531324000    -15.864152754600
     155   52  2  -0.48200    -29.989993031000     42.360875472100    -15.678843587600
     156   52  2  -0.48200    -30.533989107300     43.242187176000    -16.049461921700
     157   53  1   0.96400      0.114945484207     17.192128969600     21.401253878300
     158   53  2  -0.48200     -0.374064809041     17.408632723400     21.272820791900
     159   53  2  -0.48200      0.603955777455     16.975625215800     21.529686964600
     160   54  1   0.96400     42.026223447900      6.901216927950     38.947501756000
     161   54  2  -0.48200     41.661463529300      6.523135564350     38.784699163000
     162   54  2  -0.48200     42.390983366500      7.279298291550     39.110304349000
     163   55  1   0.96400      1.093686243200    -24.604750563000    -13.364360794400
     164   55  2  -0.48200      0.663079581287    -24.611060315500    -13.022252493200
     165   55  2  -0.48200      1.524292905120    -24.598440810400    -13.706469095500
     166   56  1   0.96400     -5.301783624830      8.173026337120     -2.148711328840
     167   56  2  -0.48200     -4.783746814520      8.288813795840     -2.292694409650
     168   56  2  -0.48200     -5.819820435150      8.057238878410     -2.004728248030
     169   57  1   0.96400     -5.640684065190    -26.349222628900    -10.745453649900
     170   57  2  -0.48200     -6.133373112130    -26.106597962300    -10.775299490400
     171   57  2  -0.48200     -5.147995018250    -26.591847295400    -10.715607809400
     172   58  1   0.96400     41.289970176400    -21.921122800900    -34.107732633800
     173   58  2  -0.48200     41.789749201900    -21.706171966500    -34.188460971700
     174   58  2  -0.48200     40.790191151000    -22.136073635200    -34.027004295900
     175   59  1   0.96400    -16.221789279600     -4.916075193090    -12.821643245400
     176   59  2  -0.48200    -16.395540394300     -4.516240459340    -12.486318424000
     177   59  2  -0.48200    -16.048038164900     -5.315909926840    -13.156968066800
     178   60  1   0.96400    -20.524605901700      8.258714792640    -17.528570292200
     179   60  2  -0.48200    -20.986324360900      8.415962044690    -17.274425911800
     180   60  2  -0.48200    -20.062887442400      8.101467540590    -17.782714672600
     181   61  1   0.96400    -10.908554887900     24.399960215400     10.443707556000
     182   61  2  -0.48200    -10.460409889000     24.208470318600     10.188761131500
     183   61  2  -0.48200    -11.356699886700     24.591450112300     10.698653980600
     184   62  1   0.96400    -11.483393016400     20.190299994000     13.426076767000
     185   62  2  -0.48200    -10.998748831800     20.269809993100     13.178492085600
     186   62  2  -0.48200    -11.968037200900     20.110789995000     13.673661448300
     187   63  1   0.96400    -42.665931766900    -29.375030701800     12.665211127200
     188   63  2  -0.48200    -42.499085839600    -29.841110135600     12.904861701800
     189   63  2  -0.48200    -42.832777694100    -28.908951267900     12.425560552700
     190   64  1   0.96400      8.752779468370     15.747612758900     -5.129384837680
     191   64  2  -0.48200      9.098377112380     16.112242721100     -5.353231345750
     192   64  2  -0.48200      8.407181824350     15.382982796800     -4.905538329620
     193   65  1   0.96400    -19.781668776300     31.395458578500     -3.169438243250
     194   65  2  -0.48200    -19.627234985600     31.003706405400     -2.815629765160
     195   65  2  -0.48200    -19.936102566900     31.787210751700     -3.523246721350
     196   66  1   0.96400    -19.802334765100      9.167201742850    -38.597697367600
     197   66  2  -0.48200    -19.608346421100      9.649744881420    -38.418754243100
     198   66  2  -0.48200    -19.996323109100      8.684658604270    -38.776640492100
     199   67  1   0.96400     37.651774535100     41.735426384400     38.355426924500
     200   67  2  -0.48200     37.647203166400     41.246262192300     38.104035803300
     201   67  2  -0.48200     37.656345903700     42.224590576400     38.606818045700
     202   68  1   0.96400      7.675608189630      2.852159843930      7.897142611370
     203   68  2  -0.48200      7.822637851300      2.361634305710      7.696476284010
     204   68  2  -0.48200      7.528578527960      3.342685382160      8.097808938730
     205   69  1   0.96400     -4.386520516500     34.568304747900     26.683142091500
     206   69  2  -0.48200     -4.815095776090     34.643172044200     26.346663065700
     207   69  2  -0.48200     -3.957945256900     34.493437451700     27.019621117300
     208   70  1   0.96400      3.509362897360    -10.178232059900     -9.914018525330
     209   70  2  -0.48200      3.678695037240    -10.265142035800     -9.398001778990
     210   70  2  -0.48200      3.340030757480    -10.091322084000    -10.430035271700
     211   71  1   0.96400     26.946006096600     -4.677045909450     32.620833491000
     212   71  2  -0.48200     26.619906007100     -4.451903470650     33.002238281100
     213   71  2  -0.48200     27.272106186000     -4.902188348250     32.239428700900
     214   72  1   0.96400    -22.931294875700     -3.032562946680    -17.167767800900
     215   72  2  -0.48200    -22.889325276800     -2.487108634790    -17.224496509800
     216   72  2  -0.48200    -22.973264474600     -3.578017258560    -17.111039092000
     217   73  1   0.96400     17.353569462200    -33.414385716100    -33.846789214400
     218   73  2  -0.48200     17.633781735700    -33.132371620200    -34.226853855600
     219   73  2  -0.48200     17.073357188800    -33.696399812000    -33.466724573200
     220   74  1   0.96400    -20.605984475100     10.082007039200    -29.848948970300
     221   74  2  -0.48200    -21.104416228200      9.868266865570    -29.757401574300
     222   74  2  -0.48200    -20.107552722000     10.295747212800    -29.940496366300
     223   75  1   0.96400     -5.104278411150    -34.467175577700    -18.749929675900
     224   75  2  -0.48200     -5.376038784330    -34.695768518000    -18.329939715100
     225   75  2  -0.48200     -4.832518037960    -34.238582637400    -19.169919636800
     226   76  1   0.96400     31.733990399500      3.447735080570    -19.026751173100
     227   76  2  -0.48200     31.753215169800      3.569294826260    -18.490697410400
     228   76  2  -0.48200     31.714765629300      3.326175334870    -19.562804935700
     229   77  1   0.96400    -17.082206902200    -31.686341312500    -25.280156115700
     230   77  2  -0.48200    -16.936477658400    -31.557605932000    -25.794636620000
     231   77  2  -0.48200    -17.227936146000    -31.815076693100    -24.765675611400
     232   78  1   0.96400    -15.470136387900    -39.480371360300      2.408037186390
     233   78  2  -0.48200    -16.014803292200    -39.440637625700      2.473299684540
     234   78  2  -0.48200    -14.925469483600    -39.520105095000      2.342774688240
     235   79  1   0.96400     41.226761865500     -3.855680523030    -40.992330195700
     236   79  2  -0.48200     41.481057887300     -3.399964833100    -41.165987165800
     237   79  2  -0.48200     40.972465843800     -4.311396212960    -40.818673225600
     238   80  1   0.96400    -26.015156004600     29.551191675800    -17.036615766400
     239   80  2  -0.48200    -25.781395161600     29.416752438800    -17.515971542200
     240   80  2  -0.48200    -26.248916847500     29.685630912800    -16.557259990500
     241   81  1   0.96400     -1.758110778810     32.708550418600     25.231932581400
     242   81  2  -0.48200     -2.274317519930     32.601451935100     25.075214633300
     243   81  2  -0.48200     -1.241904037700     32.815648902100     25.388650529500
     244   82  1   0.96400     37.496356397300     15.310784844500     -0.252003431328
     245   82  2  -0.48200     37.360183473300     15.338874985600     -0.784138638526
     246   82  2  -0.48200     37.632529321300     15.282694703400      0.280131775871
     247   83  1   0.96400     34.394367391800    -35.312606611400     42.031105887600
     248   83  2  -0.48200     34.835644709200    -35.393774214800     42.349203591600
     249   83  2  -0.48200     33.953090074400    -35.231439008100     41.713008183600
     250   84  1   0.96400    -20.271396774700    -34.143752093000    -37.481095264800
     251   84  2  -0.48200    -20.787034583500    -34.176465865500    -37.669635603100
     252   84  2  -0.48200    -19.755758965800    -34.111038320600    -37.292554926400
     253   85  1   0.96400    -32.543811380000    -34.498756369800     28.251985880100
     254   85  2  -0.48200    -33.033329416700    -34.248189889500     28.242576808000
     255   85  2  -0.48200    -32.054293343200    -34.749322850200     28.261394952300
     256   86  1   0.96400    -42.928817267300    -13.190086694000     29.162865840400
     257   86  2  -0.48200    -42.576848788300    -12.914102085900     28.842786653600
     258   86  2  -0.48200    -43.280785746400    -13.466071302200     29.482945027200
     259   87  1   0.96400     27.267658049300    -20.636726976200     30.852996782300
     260   87  2  -0.48200     26.792370871500    -20.372496022000     30.770631125200
     261   87  2  -0.48200     27.742945227100    -20.900957930500     30.935362439400
     262   88  1   0.96400     19.487339875000    -10.040026917700    -34.630740235200
     263   88  2  -0.48200     19.511611512600    -10.430360234400    -34.244022263700
     264   88  2  -0.48200     19.463068237400     -9.649693600980    -35.017458206700
     265   89  1   0.96400      6.405515649480     22.810832888300    -20.150069720500
     266   89  2  -0.48200      6.666079220490     23.144294248500    -20.501367524000
     267   89  2  -0.48200      6.144952078470     22.477371528200    -19.798771917000
     268   90  1   0.96400     36.968101487100      4.230693444490     40.519694885200
     269   90  2  -0.48200     37.043388407500      4.759662223960     40.389219178800
     270   90  2  -0.48200     36.892814566800      3.701724665010     40.650170591600
     271   91  1   0.96400    -15.722385272000     39.530681886700     27.315729478200
     272   91  2  -0.48200    -15.187161839600     39.578090159200     27.198305745300
     273   91  2  -0.48200    -16.257608704500     39.483273614200     27.433153211200
     274   92  1   0.96400      0.739154159280    -17.034946605300     30.427218876100
     275   92  2  -0.48200      0.857588926195    -16.520125710800     30.274141599600
     276   92  2  -0.48200      0.620719392366    -17.549767499800     30.580296152600
     277   93  1   0.96400    -17.570312706200     -9.602964724710     15.741609954500
     278   93  2  -0.48200    -17.203342006100     -9.436271258540     16.115836882500
     279   93  2  -0.48200    -17.937283406200     -9.769658190890     15.367383026500
     280   94  1   0.96400     -4.859131480640    -30.701192428100     11.478568789700
     281   94  2  -0.48200     -4.965233339100    -30.170952896800     11.579009991800
     282   94  2  -0.48200     -4.753029622180    -31.231431959400     11.378127587600
     283   95  1   0.96400    -39.480982883300    -24.886263557200     38.498079272300
     284   95  2  -0.48200    -40.006674841700    -24.919517849400     38.656326284700
     285   95  2  -0.48200    -38.955290924900    -24.853009264900     38.339832259900
     286   96  1   0.96400      7.503544778060     17.815110953000     24.546550038600
     287   96  2  -0.48200      7.505742447640     17.901619705800     24.003400514100
     288   96  2  -0.48200      7.501347108490     17.728602200200     25.089699563100
     289   97  1   0.96400     30.019857271300     13.847194938900      4.928465334830
     290   97  2  -0.48200     29.584970160500     14.032167228800      5.209816455040
     291   97  2  -0.48200     30.454744382100     13.662222649100      4.647114214620
     292   98  1   0.96400    -21.007925071200    -18.259629772100     -7.819419762390
     293   98  2  -0.48200    -21.005583267800    -18.531060155400     -7.341068361270
     294   98  2  -0.48200    -21.010266874600    -17.988199388800     -8.297771163520
     295   99  1   0.96400     43.116176109000    -19.041294698200     30.904428766000
     296   99  2  -0.48200     42.698383576200    -18.708120308700     30.774258778300
     297   99  2  -0.48200     43.533968641800    -19.374469087700     31.034598753700
     298  100  1   0.96400    -19.864838484500    -18.276798488900     35.939965344400
     299  100  2  -0.48200    -19.330662071300    -18.243607086300     36.066669291900
     300  100  2  -0.48200    -20.399014897800    -18.309989891600     35.813261396800
     301  101  1   0.96400     25.112115298300    -27.010246038600    -23.764692188800
     302  101  2  -0.48200     25.482407647600    -27.033495976800    -24.170700829700
     303  101  2  -0.48200     24.741822949100    -26.986996100500    -23.358683547900
     304  102  1   0.96400    -38.017583661200    -21.642511705800    -43.418473254000
     305  102  2  -0.48200    -37.740736502900    -21.183890411200    -43.543061211200
     306  102  2  -0.48200    -38.294430819600    -22.101133000300    -43.293885296700
     307  103  1   0.96400    -41.431219845400     -9.443289086200     19.764652077200
     308  103  2  -0.48200    -41.575147324700     -9.857958538790     20.096064397100
     309  103  2  -0.48200    -41.287292366100     -9.028619633600     19.433239757300
     310  104  1   0.96400    -33.615927059800     38.976163331400     18.532573772600
     311  104  2  -0.48200    -33.416058331900     38.733686667300     18.983968897800
     312  104  2  -0.48200    -33.815795787800     39.218639995400     18.081178647500
     313  105  1   0.96400     30.285625461000    -14.223136886100    -12.308395045800
     314  105  2  -0.48200     30.360491231200    -13.691206772400    -12.426485987900
     315  105  2  -0.48200     30.210759690900    -14.755066999800    -12.190304103700
     316  106  1   0.96400     -0.927630777307      7.613427737450    -25.369057913100
     317  106  2  -0.48200     -1.079905620750      7.975316634680    -24.983897169900
     318  106  2  -0.48200     -0.775355933862      7.251538840210    -25.754218656300
     319  107  1   0.96400     -4.311338376070     23.812522360900    -26.125020938800
     320  107  2  -0.48200     -3.997270567150     24.157913977300    -25.834218527000
     321  107  2  -0.48200     -4.625406184980     23.467130744400    -26.415823350600
     322  108  1   0.96400     26.238672009600     16.139902449900    -31.143340672900
     323  108  2  -0.48200     25.931421288300     15.928834911800    -31.547750723000
     324  108  2  -0.48200     26.545922731000     16.350969987900    -30.738930622900
     325  109  1   0.96400    -26.271800812600      4.207930625160    -39.990249451200
     326  109  2  -0.48200    -26.010725575600      4.605893517160    -39.714631496000
     327  109  2  -0.48200    -26.532876049700      3.809967733150    -40.265867406300
     328  110  1   0.96400    -16.040916319400     12.632856965700    -12.414594056200
     329  110  2  -0.48200    -15.775491098800     12.210910784300    -12.646996449200
     330  110  2  -0.48200    -16.306341539900     13.054803147200    -12.182191663300
     331  111  1   0.96400     -8.819140729480     21.198152590900     -4.323058571590
     332  111  2  -0.48200     -9.336314539490     21.312145969700     -4.471506406950
     333  111  2  -0.48200     -8.301966919460     21.084159212100     -4.174610736230
     334  112  1   0.96400    -30.761423265700    -41.926646517400     -9.810675882570
     335  112  2  -0.48200    -30.221377287300    -41.962538021900     -9.712889681620
     336  112  2  -0.48200    -31.301469244100    -41.890755013000     -9.908462083520
     337  113  1   0.96400     26.812385197100     33.170744366300    -12.698068095000
     338  113  2  -0.48200     26.948481481200     32.639170527700    -12.735578833700
     339  113  2  -0.48200     26.676288913000     33.702318205000    -12.660557356200
     340  114  1   0.96400    -36.995574417100     27.428928738000     -4.807499686920