LAMMPS Atom File

         3000 atoms
         2000 bonds
         1000 angles
           0 dihedrals
           0 impropers

           2 atom types
           1 bond types
           1 angle types

         0.0  255.123043069 xlo xhi
         0.0  255.123043069 ylo yhi
         0.0  255.123043069 zlo zhi

Masses

         1    1.0e-20
         2   14.00670

Atoms

       1    1  1   0.96400     70.682467945000     -6.320028555630     17.136785008100
       2    1  2  -0.48200     70.431704593400     -6.614478520500     17.527830989600
       3    1  2  -0.48200     70.933231296500     -6.025578590760     16.745739026500
       4    2  1   0.96400    -33.000504521800    121.376949595000    125.738068122000
       5    2  2  -0.48200    -32.744452603800    120.898561853000    125.648164931000
       6    2  2  -0.48200    -33.256556439900    121.855337337000    125.827971312000
       7    3  1   0.96400     -2.537660448640    -47.325620123300    -75.404745070300
       8    3  2  -0.48200     -2.687934687090    -47.116490249600    -75.890731026100
       9    3  2  -0.48200     -2.387386210180    -47.534749996900    -74.918759114600
      10    4  1   0.96400     93.288045151800    101.338713347000   -123.934357344000
      11    4  2  -0.48200     92.950087843100    101.772252738000   -123.916234049000
      12    4  2  -0.48200     93.626002460500    100.905173956000   -123.952480638000
      13    5  1   0.96400     53.452652476900     95.492630511300    102.029772796000
      14    5  2  -0.48200     53.796145675400     95.699273845100    102.406350750000
      15    5  2  -0.48200     53.109159278400     95.285987177500    101.653194842000
      16    6  1   0.96400    -86.687142704000    -27.422312404600    -98.362710745800
      17    6  2  -0.48200    -86.847357286100    -27.889153821500    -98.120037345600
      18    6  2  -0.48200    -86.526928122000    -26.955470987700    -98.605384146000
      19    7  1   0.96400    -32.039882827100    -67.710079241400     74.502310110500
      20    7  2  -0.48200    -31.988933192700    -67.774905428400     75.046094718800
      21    7  2  -0.48200    -32.090832461500    -67.645253054400     73.958525502200
      22    8  1   0.96400    111.505104562000    -91.442289986300    -65.010853533100
      23    8  2  -0.48200    111.200030694000    -91.889648864100    -64.914417184100
      24    8  2  -0.48200    111.810178430000    -90.994931108500    -65.107289882100
      25    9  1   0.96400     49.486080457400    -46.659641218400     63.879780798000
      26    9  2  -0.48200     49.125714866200    -46.714444667100     64.291646337500
      27    9  2  -0.48200     49.846446048700    -46.604837769800     63.467915258500
      28   10  1   0.96400     86.812834765400   -117.993377946000   -106.531721425000
      29   10  2  -0.48200     87.024964254900   -118.497717295000   -106.475659841000
      30   10  2  -0.48200     86.600705276000   -117.489038597000   -106.587783008000
      31   11  1   0.96400    114.357998267000    -77.096355234600    -95.097222497300
      32   11  2  -0.48200    114.328983930000    -76.748951824100    -94.671817938600
      33   11  2  -0.48200    114.387012604000    -77.443758645000    -95.522627056100
      34   12  1   0.96400    -80.077485287300    -53.065330682000   -113.309950049000
      35   12  2  -0.48200    -80.622916896700    -52.997387767800   -113.329650807000
      36   12  2  -0.48200    -79.532053677900    -53.133273596300   -113.290249291000
      37   13  1   0.96400    -23.846811692500    106.559760513000    -32.281443104100
      38   13  2  -0.48200    -23.951786233100    106.269280569000    -31.826358773800
      39   13  2  -0.48200    -23.741837151900    106.850240457000    -32.736527434500
      40   14  1   0.96400    117.164543262000     18.012652753400    112.314207935000
      41   14  2  -0.48200    116.765801760000     18.207871987000    111.989562489000
      42   14  2  -0.48200    117.563284764000     17.817433519900    112.638853381000
      43   15  1   0.96400    116.168047136000    -62.513778494900    -98.131166440400
      44   15  2  -0.48200    116.598678425000    -62.765823464600    -97.899800871200
      45   15  2  -0.48200    115.737415848000    -62.261733525100    -98.362532009700
      46   16  1   0.96400    -39.376346736400     61.822586024100     25.769658402300
      47   16  2  -0.48200    -39.397141616700     61.592257024300     26.268673557200
      48   16  2  -0.48200    -39.355551856000     62.052915023800     25.270643247400
      49   17  1   0.96400   -127.097251122000    -81.836100812200     30.584650954000
      50   17  2  -0.48200   -127.352493594000    -81.893675434900     31.068424085800
      51   17  2  -0.48200   -126.842008649000    -81.778526189500     30.100877822100
      52   18  1   0.96400    -57.576132531500     22.000347796400   -115.129121822000
      53   18  2  -0.48200    -57.037022964700     22.102515373100   -115.166840004000
      54   18  2  -0.48200    -58.115242098200     21.898180219700   -115.091403639000
      55   19  1   0.96400     51.774567374000    -96.485988515600    -98.648461782000
      56   19  2  -0.48200     51.473786103600    -96.890392187300    -98.428261196800
      57   19  2  -0.48200     52.075348644500    -96.081584844000    -98.868662367200
      58   20  1   0.96400    -60.373845313000     15.910399463400    -80.408894975400
      59   20  2  -0.48200    -60.554860245100     16.422129437400    -80.320204344300
      60   20  2  -0.48200    -60.192830380900     15.398669489400    -80.497585606500
      61   21  1   0.96400    107.694701568000     47.922662113900      2.106993581170
      62   21  2  -0.48200    107.829821084000     47.576258029300      2.512267471860
      63   21  2  -0.48200    107.559582052000     48.269066198600      1.701719690490
      64   22  1   0.96400    101.317989288000   -105.055505330000    124.029539044000
      65   22  2  -0.48200    100.892011214000   -105.376233774000    124.164357241000
      66   22  2  -0.48200    101.743967361000   -104.734776887000    123.894720847000
      67   23  1   0.96400    -62.262182083600   -100.814400083000   -108.361811253000
      68   23  2  -0.48200    -61.982964815500   -101.288160944000   -108.352411039000
      69   23  2  -0.48200    -62.541399351700   -100.340639223000   -108.371211468000
      70   24  1   0.96400     53.048489668700    -29.660232365600    -94.332344515400
      71   24  2  -0.48200     52.537677052000    -29.664076055600    -94.536196659500
      72   24  2  -0.48200     53.559302285400    -29.656388675500    -94.128492371300
      73   25  1   0.96400     18.143445560600     71.802559657200    -60.439034597900
      74   25  2  -0.48200     18.533319024900     71.968400224000    -60.088327329400
      75   25  2  -0.48200     17.753572096200     71.636719090500    -60.789741866500
      76   26  1   0.96400    -17.212999035000    -95.362868781600     46.135598172900
      77   26  2  -0.48200    -16.818177489700    -95.625972053100     46.413793456700
      78   26  2  -0.48200    -17.607820580200    -95.099765510100     45.857402889100
      79   27  1   0.96400     75.821056964300     32.947222774000     18.919868736700
      80   27  2  -0.48200     75.890919788100     33.492635753800     18.931863203900
      81   27  2  -0.48200     75.751194140600     32.401809794100     18.907874269600
      82   28  1   0.96400    -59.986918750300    -64.974886723800    -35.137605947000
      83   28  2  -0.48200    -59.520406765900    -64.819348725700    -34.891284004200
      84   28  2  -0.48200    -60.453430734800    -65.130424721900    -35.383927889700
      85   29  1   0.96400   -110.588839606000    -56.698103920400   -126.402865993000
      86   29  2  -0.48200   -110.639196083000    -57.010043950000   -125.952690868000
      87   29  2  -0.48200   -110.538483128000    -56.386163890900   -126.853041118000
      88   30  1   0.96400    -83.832165576200     12.999280934400   -119.446295311000
      89   30  2  -0.48200    -83.625558390200     12.564335948000   -119.712070272000
      90   30  2  -0.48200    -84.038772762300     13.434225920900   -119.180520351000
      91   31  1   0.96400    -46.543263027900     41.213869260700    -36.299809635400
      92   31  2  -0.48200    -46.709414973900     40.824982506700    -36.651463760100
      93   31  2  -0.48200    -46.377111082000     41.602756014700    -35.948155510700
      94   32  1   0.96400    -92.205218247200   -127.307693790000    -10.809698274100
      95   32  2  -0.48200    -92.018930194600   -127.115461683000    -10.329236435500
      96   32  2  -0.48200    -92.391506299800   -127.499925898000    -11.290160112700
      97   33  1   0.96400    -56.044486065100    -78.087820102900    -66.105205387400
      98   33  2  -0.48200    -55.827010860500    -77.725486605600    -66.457226654000
      99   33  2  -0.48200    -56.261961269800    -78.450153600200    -65.753184120900
     100   34  1   0.96400    -93.260223186300    102.544700078000     87.903937532100
     101   34  2  -0.48200    -93.637074349000    102.628124232000     88.295758424600
     102   34  2  -0.48200    -92.883372023700    102.461275924000     87.512116639600
     103   35  1   0.96400    -66.000505226000     -0.964285878057     95.053119880100
     104   35  2  -0.48200    -65.499452840100     -1.183954388240     95.109619899200
     105   35  2  -0.48200    -66.501557612000     -0.744617367872     94.996619860900
     106   36  1   0.96400    -95.729561576800   -113.325693869000    112.101090104000
     107   36  2  -0.48200    -95.313914645000   -113.251715627000    111.748577909000
     108   36  2  -0.48200    -96.145208508700   -113.399672110000    112.453602299000
     109   37  1   0.96400     -8.721566624100    -79.334665826000      7.911986512490
     110   37  2  -0.48200     -8.177254385240    -79.265077981500      7.874815037840
     111   37  2  -0.48200     -9.265878862950    -79.404253670500      7.949157987140
     112   38  1   0.96400    -98.995399358700    -25.439374591900     92.497431882500
     113   38  2  -0.48200    -99.457044064000    -25.738240417500     92.489470451600
     114   38  2  -0.48200    -98.533754653500    -25.140508766200     92.505393313400
     115   39  1   0.96400    -46.647576173700    122.288824738000    -49.249008337200
     116   39  2  -0.48200    -46.358983556900    122.304171543000    -48.781056654700
     117   39  2  -0.48200    -46.936168790500    122.273477933000    -49.716960019600
     118   40  1   0.96400   -104.688963026000    -64.708875529800    121.178673258000
     119   40  2  -0.48200   -104.436591246000    -64.388948170500    121.548071375000
     120   40  2  -0.48200   -104.941334807000    -65.028802889200    120.809275140000
     121   41  1   0.96400     58.066109110400   -103.252133428000     24.240530737800
     122   41  2  -0.48200     57.915474563900   -103.733938849000     24.022189789800
     123   41  2  -0.48200     58.216743656900   -102.770328007000     24.458871685800
     124   42  1   0.96400     34.370769718400   -107.593741906000     18.028495926800
     125   42  2  -0.48200     34.133944353500   -107.139585243000     17.828107624800
     126   42  2  -0.48200     34.607595083200   -108.047898570000     18.228884228900
     127   43  1   0.96400   -104.601221774000     61.395036946700    105.375048810000
     128   43  2  -0.48200   -104.407145127000     61.631220707100    105.832270296000
     129   43  2  -0.48200   -104.795298421000     61.158853186200    104.917827325000
     130   44  1   0.96400     -6.871218693190    -83.832330638400    -67.151717440200
     131   44  2  -0.48200     -6.957269618080    -83.834755141600    -66.608496159200
     132   44  2  -0.48200     -6.785167768290    -83.829906135200    -67.694938721100
     133   45  1   0.96400    117.944103819000    -77.572079236400    -66.504041225500
     134   45  2  -0.48200    117.707795224000    -78.035658568300    -66.682233400700
     135   45  2  -0.48200    118.180412413000    -77.108499904600    -66.325849050300
     136   46  1   0.96400    -88.557711399100     22.540727046300   -108.198490657000
     137   46  2  -0.48200    -88.482606711700     22.138321633000   -108.565817717000
     138   46  2  -0.48200    -88.632816086500     22.943132459600   -107.831163596000
     139   47  1   0.96400    -20.322795382400    -11.035550237500    120.715125722000
     140   47  2  -0.48200    -20.678759310100    -10.627686590200    120.812269571000
     141   47  2  -0.48200    -19.966831454700    -11.443413884700    120.617981873000
     142   48  1   0.96400      3.179228046130    -83.037147394700    -55.917251949000
     143   48  2  -0.48200      3.374156846370    -83.391789432600    -55.544784785700
     144   48  2  -0.48200      2.984299245890    -82.682505356700    -56.289719112400
     145   49  1   0.96400     70.928132047000     43.574755359900     28.411697967800
     146   49  2  -0.48200     71.028100003600     43.704819251000     28.936664435200
     147   49  2  -0.48200     70.828164090400     43.444691468700     27.886731500400
     148   50  1   0.96400     12.156376827100     74.676690644500     29.961610025300
     149   50  2  -0.48200     12.450029106100     74.216757195200     30.030381831000
     150   50  2  -0.48200     11.862724548100     75.136624093700     29.892838219500
     151   51  1   0.96400    -88.903681656800    -38.336878559900    -87.998940373700
     152   51  2  -0.48200    -88.830724146500    -38.655769093300    -87.556802352900
     153   51  2  -0.48200    -88.976639167100    -38.017988026500    -88.441078394400
     154   52  1   0.96400    -22.982431356500      0.330602304401   -107.175981422000
     155   52  2  -0.48200    -23.198949052800      0.110787635182   -107.631285275000
     156   52  2  -0.48200    -22.765913660200      0.550416973620   -106.720677570000
     157   53  1   0.96400   -103.389430981000    113.520862268000   -126.811676205000
     158   53  2  -0.48200   -103.741415286000    113.862384330000   -126.562739002000
     159   53  2  -0.48200   -103.037446676000    113.179340207000   -127.060613407000
     160   54  1   0.96400    -91.753755044600     76.489916502600    -30.843100240700
     161   54  2  -0.48200    -91.610494729600     76.476304662800    -31.373940329600
     162   54  2  -0.48200    -91.897015359700     76.503528342300    -30.312260151900
     163   55  1   0.96400     25.510087128400    -71.760201935400    -59.270974458200
     164   55  2  -0.48200     25.468231841300    -72.299960870400    -59.173977411600
     165   55  2  -0.48200     25.551942415500    -71.220443000400    -59.367971504700
     166   56  1   0.96400     32.641172573000   -105.878552686000      2.971949481630
     167   56  2  -0.48200     32.939258110900   -105.625509936000      2.585149302550
     168   56  2  -0.48200     32.343087035000   -106.131595437000      3.358749660700
     169   57  1   0.96400    -47.518369936000    -67.787742561300   -127.292282477000
     170   57  2  -0.48200    -46.985187370100    -67.848483293800   -127.412810129000
     171   57  2  -0.48200    -48.051552502000    -67.727001828800   -127.171754826000
     172   58  1   0.96400   -125.515142251000     97.828427825800      2.217770182060
     173   58  2  -0.48200   -125.636312598000     97.426748630700      2.573398599380
     174   58  2  -0.48200   -125.393971904000     98.230107021000      1.862141764740
     175   59  1   0.96400    -29.642655642100    -56.136870288700    -46.009190568800
     176   59  2  -0.48200    -29.932145266500    -56.569730769900    -46.186186504400
     177   59  2  -0.48200    -29.353166017700    -55.704009807500    -45.832194633300
     178   60  1   0.96400      9.962487782280    -47.293284025800    -48.641453057300
     179   60  2  -0.48200      9.677520693030    -46.824038976700    -48.608243992300
     180   60  2  -0.48200     10.247454871500    -47.762529074800    -48.674662122400
     181   61  1   0.96400     67.888142210800    -10.767231605200     33.115350594800
     182   61  2  -0.48200     67.371618305300    -10.916395105600     32.999362210900
     183   61  2  -0.48200     68.404666116300    -10.618068104800     33.231338978700
     184   62  1   0.96400     67.702207489700    -12.005429170100    114.303730357000
     185   62  2  -0.48200     68.217324224700    -11.877546932800    114.447955468000
     186   62  2  -0.48200     67.187090754800    -12.133311407300    114.159505245000
     187   63  1   0.96400    -73.735423382800   -109.905794508000    -15.249676748400
     188   63  2  -0.48200    -73.576724353600   -109.606729284000    -14.816231700400
     189   63  2  -0.48200    -73.894122412100   -110.204859733000    -15.683121796400
     190   64  1   0.96400     24.413876873600     77.347230858700   -127.222348488000
     191   64  2  -0.48200     24.111667225000     77.165781331600   -127.644539673909
     192   64  2  -0.48200     24.716086522200     77.528680385800   -126.800157302000
     193   65  1   0.96400     64.654824053300    104.496958217000    107.666781525000
     194   65  2  -0.48200     64.763168828100    104.918800656000    108.002654070000
     195   65  2  -0.48200     64.546479278400    104.075115777000    107.330908981000
     196   66  1   0.96400     39.912691772300    -10.736722433900     13.410602310200
     197   66  2  -0.48200     39.430369967700    -10.474779929500     13.375221507900
     198   66  2  -0.48200     40.395013576900    -10.998664938400     13.445983112600
     199   67  1   0.96400    -16.020527888700    -83.422235547400    -87.442144533700
     200   67  2  -0.48200    -16.290629575000    -83.875107137000    -87.285771894400
     201   67  2  -0.48200    -15.750426202300    -82.969363957700    -87.598517172900
     202   68  1   0.96400     76.009790496100     67.536162800700    -81.389563094600
     203   68  2  -0.48200     76.536228809000     67.694228856700    -81.370125383900
     204   68  2  -0.48200     75.483352183100     67.378096744600    -81.409000805200
     205   69  1   0.96400   -111.777579569000   -123.287190738000     69.602328701900
     206   69  2  -0.48200   -112.220916668000   -123.208967175000     69.918292767700
     207   69  2  -0.48200   -111.334242470000   -123.365414301000     69.286364636000
     208   70  1   0.96400    114.470043548000     95.516275079500     58.622684241400
     209   70  2  -0.48200    114.331714839000     95.774249860000     59.088317338000
     210   70  2  -0.48200    114.608372258000     95.258300299000     58.157051144800
     211   71  1   0.96400    -94.246418938800    -51.310654584600   -118.794417999000
     212   71  2  -0.48200    -94.655900516000    -51.293971751700   -119.161223835000
     213   71  2  -0.48200    -93.836937361500    -51.327337417500   -118.427612164000
     214   72  1   0.96400   -114.571347423000     95.126307766300     52.103956129700
     215   72  2  -0.48200   -114.560207036000     94.579281551000     52.047936387300
     216   72  2  -0.48200   -114.582487811000     95.673333981600     52.159975872100
     217   73  1   0.96400    -51.040282279500   -115.858891045000    -53.142211072800
     218   73  2  -0.48200    -51.416952296100   -116.153956966000    -52.870999345900
     219   73  2  -0.48200    -50.663612262900   -115.563825124000    -53.413422799700
     220   74  1   0.96400    -56.514893712600    -78.340049043700    121.845316523000
     221   74  2  -0.48200    -56.274271891700    -78.647876595300    121.458220491000
     222   74  2  -0.48200    -56.755515533500    -78.032221492100    122.232412554000
     223   75  1   0.96400     -1.369238705210    -20.902292009800     43.770355928300
     224   75  2  -0.48200     -1.168457198110    -21.209967621900     43.361060797400
     225   75  2  -0.48200     -1.570020212320    -20.594616397800     44.179651059100
     226   76  1   0.96400    118.795870727000    -76.251655423500    113.108003508000
     227   76  2  -0.48200    119.249087682000    -76.426444422900    112.850043825000
     228   76  2  -0.48200    118.342653773000    -76.076866424200    113.365963191000
     229   77  1   0.96400   -107.068460115000     84.696248231600     43.712750994800
     230   77  2  -0.48200   -107.597707362000     84.845800668200     43.707145620500
     231   77  2  -0.48200   -106.539212868000     84.546695794900     43.718356369200
     232   78  1   0.96400    -45.083383949000    111.597895615000    -38.628377794200
     233   78  2  -0.48200    -45.039531134400    111.687254953000    -39.169295384300
     234   78  2  -0.48200    -45.127236763600    111.508536277000    -38.087460204000
     235   79  1   0.96400    -55.011330999300     -0.154959596266    105.621725854000
     236   79  2  -0.48200    -54.731325312800      0.148694308439    105.984894027000
     237   79  2  -0.48200    -55.291336685800     -0.458613500970    105.258557681000
     238   80  1   0.96400    -81.563125647500    -21.231732738200    121.114811139000
     239   80  2  -0.48200    -81.479971079100    -21.527378661500    121.571077296000
     240   80  2  -0.48200    -81.646280215900    -20.936086814800    120.658544982000
     241   81  1   0.96400    -67.772181869700     33.264236434700   -116.665263580000
     242   81  2  -0.48200    -67.926183825700     33.791857514100   -116.685248428000
     243   81  2  -0.48200    -67.618179913800     32.736615355400   -116.645278732000
     244   82  1   0.96400      0.835634073587    -87.593319505800    -41.657614528500
     245   82  2  -0.48200      0.782978653412    -87.230835264200    -42.067898066200
     246   82  2  -0.48200      0.888289493762    -87.955803747400    -41.247330990800
     247   83  1   0.96400     77.254496238100    -21.422811196900   -118.753286057000
     248   83  2  -0.48200     77.387684205400    -21.263746445400   -118.243914513000
     249   83  2  -0.48200     77.121308270900    -21.581875948500   -119.262657601000
     250   84  1   0.96400    -66.912610907300    -86.555806844100   -110.762395695000
     251   84  2  -0.48200    -66.565917245700    -86.887400683700   -111.031373446000
     252   84  2  -0.48200    -67.259304569000    -86.224213004400   -110.493417944000
     253   85  1   0.96400   -122.152261937000    -71.826173159000     31.297842943100
     254   85  2  -0.48200   -122.339423718000    -71.390713716500     31.018834804200
     255   85  2  -0.48200   -121.965100156000    -72.261632601600     31.576851082100
     256   86  1   0.96400    123.572355685000     15.910105244500    -26.497815043500
     257   86  2  -0.48200    123.029247363000     15.836258251200    -26.543421748900
     258   86  2  -0.48200    124.115464008000     15.983952237900    -26.452208338200
     259   87  1   0.96400   -101.673199862000     77.156110767500    -19.441373454400
     260   87  2  -0.48200   -101.160736136000     77.309428796000    -19.569336387600
     261   87  2  -0.48200   -102.185663587000     77.002792738900    -19.313410521200
     262   88  1   0.96400   -109.678631903000   -112.475642728000    106.388880260000
     263   88  2  -0.48200   -109.576988978000   -112.869306094000    106.759282569000
     264   88  2  -0.48200   -109.780274828000   -112.081979363000    106.018477951000
     265   89  1   0.96400   -122.379730747000    -48.706058993100     32.482280991100
     266   89  2  -0.48200   -122.915476151000    -48.632224308300     32.582407417000
     267   89  2  -0.48200   -121.843985343000    -48.779893677900     32.382154565100
     268   90  1   0.96400     -0.091089781431    -30.931037154100    113.990549721000
     269   90  2  -0.48200     -0.127506416312    -30.674803743100    113.505247478000
     270   90  2  -0.48200     -0.054673146549    -31.187270565100    114.475851965000
     271   91  1   0.96400     60.688385538900    116.827182420000    -71.605280324900
     272   91  2  -0.48200     60.258887665400    116.716548573000    -71.930536729200
     273   91  2  -0.48200     61.117883412400    116.937816267000    -71.280023920600
     274   92  1   0.96400    -58.524608405900    127.531533068000     53.908634982300
     275   92  2  -0.48200    -58.141580157100    127.909370055909     54.022777749600
     276   92  2  -0.48200    -58.907636654800    127.153696080000     53.794492215000
     277   93  1   0.96400    102.562597540000    104.768920286000     57.624478164000
     278   93  2  -0.48200    102.500523726000    104.333704023000     57.954983301100
     279   93  2  -0.48200    102.624671355000    105.204136549000     57.293973026800
     280   94  1   0.96400     13.940100991700    -56.658359068600     44.173981879000
     281   94  2  -0.48200     14.482134324100    -56.692723135300     44.087269841500
     282   94  2  -0.48200     13.398067659200    -56.623995001900     44.260693916500
     283   95  1   0.96400   -108.027013645000     64.908692412200     91.044180436400
     284   95  2  -0.48200   -107.840343557000     65.155001106700     90.589222959900
     285   95  2  -0.48200   -108.213683732000     64.662383717700     91.499137912900
     286   96  1   0.96400    120.698756421000     64.830363496900     99.517861466000
     287   96  2  -0.48200    121.102276839000     64.849108523700     99.891117270500
     288   96  2  -0.48200    120.295236002000     64.811618470200     99.144605661400
     289   97  1   0.96400    -96.151753681500    -91.944162039500   -125.107997815000
     290   97  2  -0.48200    -95.610583842200    -92.019830512600   -125.170523707000
     291   97  2  -0.48200    -96.692923520900    -91.868493566300   -125.045471923000
     292   98  1   0.96400    -64.014885363300     21.349271523100    -94.023673748400
     293   98  2  -0.48200    -64.358065730600     20.963061962600    -93.835075204100
     294   98  2  -0.48200    -63.671704995900     21.735481083500    -94.212272292600
     295   99  1   0.96400    -31.813098289200    109.398196569000    -19.747258405500
     296   99  2  -0.48200    -31.607913492300    108.960504392000    -20.009603134800
     297   99  2  -0.48200    -32.018283086000    109.835888747000    -19.484913676300
     298  100  1   0.96400    127.366152621000    -58.225414287600     26.676091131600
     299  100  2  -0.48200    127.595780732909    -58.725113930900     26.684528946100
     300  100  2  -0.48200    127.136524509000    -57.725714644300     26.667653317000
     301  101  1   0.96400     29.727442103400    104.953480195000     54.761492210300
     302  101  2  -0.48200     30.107825281300    105.290151089000     54.972350805300
     303  101  2  -0.48200     29.347058925500    104.616809301000     54.550633615300
     304  102  1   0.96400     61.829891616200    -11.128881187000    100.320557177000
     305  102  2  -0.48200     61.344019264100    -10.871148288500    100.319211645000
     306  102  2  -0.48200     62.315763968400    -11.386614085500    100.321902709000
     307  103  1   0.96400     98.735527280000    -58.828320765500    -99.888311783500
     308  103  2  -0.48200     98.204757366500    -58.722416873100    -99.790497344200
     309  103  2  -0.48200     99.266297193400    -58.934224658000    -99.986126222800
     310  104  1   0.96400    -64.236994686100     99.013499325000    -65.756511847700
     311  104  2  -0.48200    -64.360414374200     99.121649147100    -65.231563091500
     312  104  2  -0.48200    -64.113574998000     98.905349503000    -66.281460603800
     313  105  1   0.96400     58.526363545600     91.997503418000     -1.561128913960
     314  105  2  -0.48200     57.978221095600     92.026206399700     -1.526257817790
     315  105  2  -0.48200     59.074505995600     91.968800436200     -1.596000010130
     316  106  1   0.96400     67.598046031700    -24.881803663900    103.893854106000
     317  106  2  -0.48200     67.737413474500    -24.349907392200    103.906624072000
     318  106  2  -0.48200     67.458678588900    -25.413699935600    103.881084140000
     319  107  1   0.96400     23.192731004700   -103.188128001000    111.936966047000
     320  107  2  -0.48200     23.056072946300   -103.433082405000    112.410064256000
     321  107  2  -0.48200     23.329389063200   -102.943173597000    111.463867839000
     322  108  1   0.96400    -29.941296948700    -89.175027969400    -86.832635272500
     323  108  2  -0.48200    -29.656907230800    -88.716606836600    -86.939745278300
     324  108  2  -0.48200    -30.225686666600    -89.633449102200    -86.725525266600
     325  109  1   0.96400     -9.930680874660     42.035604444400     86.493038648300
     326  109  2  -0.48200    -10.395328356300     42.137521937200     86.216967022700
     327  109  2  -0.48200     -9.466033393000     41.933686951500     86.769110273800
     328  110  1   0.96400     51.200663514100    124.166549893000     85.151996540200
     329  110  2  -0.48200     51.242657186300    124.713577261000     85.190695263800
     330  110  2  -0.48200     51.158669841900    123.619522526000     85.113297816600
     331  111  1   0.96400     23.056328203600    -92.264409190300   -105.089150448000
     332  111  2  -0.48200     23.397293269200    -91.937131900100   -104.807845633000
     333  111  2  -0.48200     22.715363137900    -92.591686480500   -105.370455264000
     334  112  1   0.96400     98.317206293900     30.913810028900      8.111405565560
     335  112  2  -0.48200     97.856349805600     31.205747143700      8.041519814840
     336  112  2  -0.48200     98.778062782200     30.621872914100      8.181291316270
     337  113  1   0.96400    -43.122622408700    -70.586356182600    -69.416680949900
     338  113  2  -0.48200    -43.494662873400    -70.938610527800    -69.216674027700
     339  113  2  -0.48200    -42.750581944100    -70.234101837300    -69.616687872200
     340  114  1   0.96400     76.588939156900     55.280312593500    -38.525893346900