LAMMPS Atom File

         3000 atoms
         2000 bonds
         1000 angles
           0 dihedrals
           0 impropers

           2 atom types
           1 bond types
           1 angle types

         0.0  39.7693394398 xlo xhi
         0.0  39.7693394398 ylo yhi
         0.0  39.7693394398 zlo zhi

Masses

         1    1.0e-20
         2   14.00670

Atoms

       1    1  1   0.96400    -14.254210002000     13.285141734500     -0.274863086050
       2    1  2  -0.48200    -14.120467175300     12.798054876900     -0.492484889801
       3    1  2  -0.48200    -14.387952828700     13.772228592000     -0.057241282300
       4    2  1   0.96400      9.011829738570     -0.280483107366     -0.896674148376
       5    2  2  -0.48200      8.863850873970     -0.735828497172     -1.167345224800
       6    2  2  -0.48200      9.159808603160      0.174862282441     -0.626003071948
       7    3  1   0.96400    -10.528268692100    -16.190170036800     16.249738362100
       8    3  2  -0.48200    -10.897701750200    -15.789569320900     16.175318727400
       9    3  2  -0.48200    -10.158835634000    -16.590770752700     16.324157996700
      10    4  1   0.96400     13.578644401000    -18.512185920200      0.894599623719
      11    4  2  -0.48200     13.575368278900    -18.069302823400      1.220703640180
      12    4  2  -0.48200     13.581920523100    -18.955069017100      0.568495607262
      13    5  1   0.96400    -10.030689324200     19.236180263700     -0.074679769804
      14    5  2  -0.48200    -10.482942495500     19.149491712900     -0.375432432627
      15    5  2  -0.48200     -9.578436152830     19.322868814400      0.226072893019
      16    6  1   0.96400    -10.698679108900     18.386167435600     19.311402767700
      17    6  2  -0.48200    -10.185423442900     18.254387307300     19.458720856000
      18    6  2  -0.48200    -11.211934774800     18.517947564000     19.164084679400
      19    7  1   0.96400     19.190588995400      3.117477793450     -3.044591419820
      20    7  2  -0.48200     18.735272906200      3.397173598440     -2.914370393990
      21    7  2  -0.48200     19.645905084600      2.837781988460     -3.174812445650
      22    8  1   0.96400     16.511941837200     -4.881294458910      7.109740345150
      23    8  2  -0.48200     16.073303821500     -4.693466744410      7.383268114950
      24    8  2  -0.48200     16.950579852900     -5.069122173420      6.836212575350
      25    9  1   0.96400      8.761330532430     14.726551013800    -19.413965849400
      26    9  2  -0.48200      8.952549004880     14.628119666700    -18.907757625800
      27    9  2  -0.48200      8.570112059970     14.824982361000    -19.920174073112
      28   10  1   0.96400      6.453956811940     -7.813828485200    -19.863940743800
      29   10  2  -0.48200      6.221195855810     -7.809456047950    -19.365640413600
      30   10  2  -0.48200      6.686717768080     -7.818200922440    -20.362241074012
      31   11  1   0.96400      0.650056398565      0.265701615404    -12.024803532500
      32   11  2  -0.48200      0.725930701485      0.634588798463    -11.623972724900
      33   11  2  -0.48200      0.574182095645     -0.103185567654    -12.425634340100
      34   12  1   0.96400     -8.372069397910     -2.376423505190      2.667656142170
      35   12  2  -0.48200     -8.514012710880     -2.802998584330      2.350818963550
      36   12  2  -0.48200     -8.230126084940     -1.949848426050      2.984493320800
      37   13  1   0.96400     -8.612573580530    -14.951197581400     11.473527255900
      38   13  2  -0.48200     -9.125661232820    -15.103021246900     11.600769684600
      39   13  2  -0.48200     -8.099485928250    -14.799373915900     11.346284827200
      40   14  1   0.96400    -15.433157951800     -6.350702294220     12.694822239900
      41   14  2  -0.48200    -15.582601179500     -6.667520601070     13.118842147700
      42   14  2  -0.48200    -15.283714724100     -6.033883987370     12.270802332200
      43   15  1   0.96400     13.931635472400     15.795597756900     18.292098464300
      44   15  2  -0.48200     14.034291265900     15.456151121600     17.871696549600
      45   15  2  -0.48200     13.828979679000     16.135044392100     18.712500379000
      46   16  1   0.96400      7.313092289740     18.942914422100     14.903419016100
      47   16  2  -0.48200      7.696366322350     18.990932674700     14.511889626000
      48   16  2  -0.48200      6.929818257130     18.894896169500     15.294948406200
      49   17  1   0.96400    -19.690873144500     18.873540756000      1.398353915660
      50   17  2  -0.48200    -19.915639542512     18.632584841200      1.838717757780
      51   17  2  -0.48200    -19.466106746500     19.114496670800      0.957990073547
      52   18  1   0.96400     -8.870753353780     -3.276046695590      8.690403578480
      53   18  2  -0.48200     -9.208865265910     -3.453652757230      9.086176773310
      54   18  2  -0.48200     -8.532641441640     -3.098440633960      8.294630383660
      55   19  1   0.96400     -0.371574348407     -3.692238566760     17.626717179300
      56   19  2  -0.48200     -0.416430828108     -3.890543305330     18.137758397700
      57   19  2  -0.48200     -0.326717868705     -3.493933828190     17.115675960900
      58   20  1   0.96400    -12.483362142300     -1.014792921540    -12.410194616800
      59   20  2  -0.48200    -12.211322845700     -1.438431249550    -12.188778293700
      60   20  2  -0.48200    -12.755401438900     -0.591154593526    -12.631610939900
      61   21  1   0.96400     16.603157220900    -19.866291422200      4.731615043030
      62   21  2  -0.48200     16.964085017400    -19.847581733000      4.317029619640
      63   21  2  -0.48200     16.242229424500    -19.885001111412      5.146200466410
      64   22  1   0.96400      0.923373779088     -5.774400505340     14.070172267700
      65   22  2  -0.48200      0.912557021574     -6.125368511680     14.493497740900
      66   22  2  -0.48200      0.934190536602     -5.423432499000     13.646846794500
      67   23  1   0.96400     -2.964517283230    -12.549443533500      4.648417643970
      68   23  2  -0.48200     -2.616690558110    -12.541764234900      5.074396044440
      69   23  2  -0.48200     -3.312344008350    -12.557122832100      4.222439243500
      70   24  1   0.96400     -3.872820401380     -5.668987626760     19.609650882500
      71   24  2  -0.48200     -3.432982382530     -5.825849957470     19.319070899700
      72   24  2  -0.48200     -4.312658420220     -5.512125296050     19.900230865212
      73   25  1   0.96400    -15.401894101000      0.927869344353    -14.616167197600
      74   25  2  -0.48200    -15.856068570900      0.622639518450    -14.560847180700
      75   25  2  -0.48200    -14.947719631100      1.233099170260    -14.671487214400
      76   26  1   0.96400    -16.396482861700     19.703855835700     -1.977560414010
      77   26  2  -0.48200    -16.632408444900     20.200546901512     -1.989269572420
      78   26  2  -0.48200    -16.160557278500     19.207164770000     -1.965851255590
      79   27  1   0.96400     -9.811355081910    -13.319644715800      8.309285462420
      80   27  2  -0.48200     -9.588944188930    -13.318523935300      7.806262462420
      81   27  2  -0.48200    -10.033765974900    -13.320765496400      8.812308462430
      82   28  1   0.96400     10.297156230700     -2.437674980090     10.561663435200
      83   28  2  -0.48200     10.232722748200     -2.721812395190     10.095172003600
      84   28  2  -0.48200     10.361589713100     -2.153537564980     11.028154866700
      85   29  1   0.96400     15.452020546200    -15.522973346200     -8.862590111140
      86   29  2  -0.48200     15.288302871900    -15.767919628800     -9.327022928450
      87   29  2  -0.48200     15.615738220500    -15.278027063700     -8.398157293840
      88   30  1   0.96400    -12.612158195600      4.750923151330      6.385418519260
      89   30  2  -0.48200    -13.088910908100      4.803283015110      6.116224730690
      90   30  2  -0.48200    -12.135405483100      4.698563287560      6.654612307820
      91   31  1   0.96400     15.060885127400     -8.374570998680    -15.630986636300
      92   31  2  -0.48200     15.086058695800     -8.831266130470    -15.325542945800
      93   31  2  -0.48200     15.035711559000     -7.917875866900    -15.936430326800
      94   32  1   0.96400    -12.684127578900      5.126790190570    -15.778395907300
      95   32  2  -0.48200    -13.186335722700      5.347162571980    -15.819904867800
      96   32  2  -0.48200    -12.181919435100      4.906417809160    -15.736886946800
      97   33  1   0.96400     12.245854783200     17.972119820400      8.440766251650
      98   33  2  -0.48200     12.585097369300     17.554480641100      8.554748635190
      99   33  2  -0.48200     11.906612197200     18.389758999700      8.326783868110
     100   34  1   0.96400    -12.351588378500     -5.439217954350      7.894970983080
     101   34  2  -0.48200    -12.011729254500     -5.832526580330      8.074704398230
     102   34  2  -0.48200    -12.691447502600     -5.045909328380      7.715237567920
     103   35  1   0.96400     10.280191125700     18.047695284100     18.651310155900
     104   35  2  -0.48200     10.035309789800     17.573235698900     18.783299676000
     105   35  2  -0.48200     10.525072461500     18.522154869200     18.519320635800
     106   36  1   0.96400      5.133513790240     -4.416119078890      8.926640210290
     107   36  2  -0.48200      5.190740859180     -4.502886141730      9.466729591210
     108   36  2  -0.48200      5.076286721310     -4.329352016050      8.386550829360
     109   37  1   0.96400     14.573200663500    -17.214910620200    -15.661471244900
     110   37  2  -0.48200     14.287909286900    -17.328558771200    -15.205189612400
     111   37  2  -0.48200     14.858492040100    -17.101262469100    -16.117752877400
     112   38  1   0.96400     -6.881257450080    -17.665499011500      3.098109280450
     113   38  2  -0.48200     -7.011790204490    -17.598082628200      2.568093968130
     114   38  2  -0.48200     -6.750724695670    -17.732915394800      3.628124592770
     115   39  1   0.96400     -9.305022708170     -4.209538384410     17.220788443100
     116   39  2  -0.48200     -9.389747947590     -3.910282768640     17.674404701900
     117   39  2  -0.48200     -9.220297468750     -4.508794000180     16.767172184400
     118   40  1   0.96400     10.983643081500    -10.468502380800    -14.431061562200
     119   40  2  -0.48200     10.717404205000    -10.074184003300    -14.706977994800
     120   40  2  -0.48200     11.249881958100    -10.862820758300    -14.155145129600
     121   41  1   0.96400      0.648948617084     12.080601464800    -19.038678040300
     122   41  2  -0.48200      1.151299672670     12.211710432800    -18.857146072200
     123   41  2  -0.48200      0.146597561492     11.949492496700    -19.220210008400
     124   42  1   0.96400      5.197724041170      1.342482482590     -5.150911745080
     125   42  2  -0.48200      4.878570785930      1.130276888740     -4.756437429560
     126   42  2  -0.48200      5.516877296410      1.554688076450     -5.545386060610
     127   43  1   0.96400    -19.142159841500     -3.075395272290    -18.322995973000
     128   43  2  -0.48200    -19.005251862100     -3.590750861180    -18.457772907900
     129   43  2  -0.48200    -19.279067820900     -2.560039683400    -18.188219038100
     130   44  1   0.96400    -10.833522114400     13.731020160900     -5.591719436510
     131   44  2  -0.48200    -11.224125815600     13.812707896300     -5.213227874530
     132   44  2  -0.48200    -10.442918413100     13.649332425500     -5.970210998500
     133   45  1   0.96400     16.303942143800     14.105477530700      0.153187922895
     134   45  2  -0.48200     16.791293160300     14.284757941400      0.334426773784
     135   45  2  -0.48200     15.816591127400     13.926197119900     -0.028050927994
     136   46  1   0.96400    -13.969958432800     -5.855360805540    -17.001000341800
     137   46  2  -0.48200    -14.282340989400     -6.240371013330    -16.762915738600
     138   46  2  -0.48200    -13.657575876300     -5.470350597760    -17.239084945000
     139   47  1   0.96400     -2.266609249370     12.869951746300     -2.868702754630
     140   47  2  -0.48200     -2.589883467090     12.586101499800     -3.211372884260
     141   47  2  -0.48200     -1.943335031650     13.153801992800     -2.526032625010
     142   48  1   0.96400     11.066826016700      9.024527167450      3.422310409770
     143   48  2  -0.48200     10.698674906600      9.248116951470      3.764322644370
     144   48  2  -0.48200     11.434977126800      8.800937383440      3.080298175170
     145   49  1   0.96400     -4.996040629660     -6.184741272710     -7.471559202620
     146   49  2  -0.48200     -4.840662914410     -6.667828832170     -7.259464470240
     147   49  2  -0.48200     -5.151418344920     -5.701653713260     -7.683653935000
     148   50  1   0.96400      3.208877702380      1.867588078320    -14.635855746500
     149   50  2  -0.48200      3.153319664070      2.181719940630    -14.187821732700
     150   50  2  -0.48200      3.264435740680      1.553456216010    -15.083889760200
     151   51  1   0.96400    -16.910027802800     17.834816605000     -5.315822544670
     152   51  2  -0.48200    -16.996984091500     18.369473276000     -5.411116028310
     153   51  2  -0.48200    -16.823071514100     17.300159934000     -5.220529061030
     154   52  1   0.96400     -2.089681776320      5.959468312130     10.827664780400
     155   52  2  -0.48200     -1.717941607680      6.030415335080     11.226758462300
     156   52  2  -0.48200     -2.461421944960      5.888521289180     10.428571098400
     157   53  1   0.96400     15.096879322000      1.062467673610     14.621877082800
     158   53  2  -0.48200     15.123532842400      1.012591518510     14.074792117800
     159   53  2  -0.48200     15.070225801500      1.112343828700     15.168962047900
     160   54  1   0.96400     -1.566096303060     -9.850449421800     -5.761236014420
     161   54  2  -0.48200     -1.320507046740     -9.530568474010     -5.387254602540
     162   54  2  -0.48200     -1.811685559370    -10.170330369600     -6.135217426290
     163   55  1   0.96400     -5.526534784780      5.141357286570     -1.583532761080
     164   55  2  -0.48200     -5.499945999590      4.661259122510     -1.316514429560
     165   55  2  -0.48200     -5.553123569980      5.621455450630     -1.850551092600
     166   56  1   0.96400     -2.509676837740    -13.152888844400     -6.153387335170
     167   56  2  -0.48200     -2.183613544530    -13.393024431100     -5.781207769890
     168   56  2  -0.48200     -2.835740130950    -12.912753257700     -6.525566900450
     169   57  1   0.96400    -17.642215463300     -7.548087954540    -15.917909670400
     170   57  2  -0.48200    -17.311802738200     -7.845298028830    -16.241936834100
     171   57  2  -0.48200    -17.972628188400     -7.250877880250    -15.593882506700
     172   58  1   0.96400     -8.084351395590     -1.813885161760     -6.031997298270
     173   58  2  -0.48200     -7.707408686050     -1.925150318150     -5.647245093990
     174   58  2  -0.48200     -8.461294105140     -1.702620005380     -6.416749502540
     175   59  1   0.96400    -11.251651267900      2.521089335200     -7.311650839580
     176   59  2  -0.48200    -11.286595834800      2.082344017360     -6.981830550140
     177   59  2  -0.48200    -11.216706701000      2.959834653030     -7.641471129020
     178   60  1   0.96400     -6.170571289640     11.092781098100      7.141264167260
     179   60  2  -0.48200     -5.954927487830     10.596626424800      7.240401904110
     180   60  2  -0.48200     -6.386215091460     11.588935771400      7.042126430420
     181   61  1   0.96400    -19.154178480100     -9.177569408620      8.929061599410
     182   61  2  -0.48200    -19.281475617400     -8.814459161550      8.536064923460
     183   61  2  -0.48200    -19.026881342800     -9.540679655690      9.322058275360
     184   62  1   0.96400      0.046014356974      4.557795667440     -3.482115782330
     185   62  2  -0.48200     -0.489919103679      4.567384156750     -3.358894896820
     186   62  2  -0.48200      0.581947817628      4.548207178130     -3.605336667840
     187   63  1   0.96400     -7.473932690420     15.356829200800     -0.619267488970
     188   63  2  -0.48200     -7.197091255060     15.641282088200     -0.238550567244
     189   63  2  -0.48200     -7.750774125770     15.072376313300     -0.999984410695
     190   64  1   0.96400     -9.818970199500      3.099163262410    -18.333117381900
     191   64  2  -0.48200     -9.578102026460      2.652625650350    -18.545453634700
     192   64  2  -0.48200    -10.059838372500      3.545700874470    -18.120781129200
     193   65  1   0.96400     16.990374187800    -19.608635697500     16.685552290800
     194   65  2  -0.48200     17.219654733300    -20.077772229112     16.512805811300
     195   65  2  -0.48200     16.761093642300    -19.139499165900     16.858298770400
     196   66  1   0.96400      1.506848232500      3.096641739620      3.011702314240
     197   66  2  -0.48200      1.352698137560      3.598884041010      3.174461089490
     198   66  2  -0.48200      1.660998327440      2.594399438230      2.848943538980
     199   67  1   0.96400     -2.201324207620    -19.621910740800      8.593583860580
     200   67  2  -0.48200     -2.525702983060    -19.180470630700      8.544501896060
     201   67  2  -0.48200     -1.876945432170    -20.063350850912      8.642665825100
     202   68  1   0.96400      1.997609814040     -8.021245868030     -4.181788887430
     203   68  2  -0.48200      1.596194608610     -7.795577265570     -3.881057255040
     204   68  2  -0.48200      2.399025019470     -8.246914470480     -4.482520519810
     205   69  1   0.96400    -13.500421597100     -3.848011879330     -8.067426343340
     206   69  2  -0.48200    -13.793538261100     -3.472277215110     -7.792824662080
     207   69  2  -0.48200    -13.207304933000     -4.223746543550     -8.342028024590
     208   70  1   0.96400      8.820532018600    -14.519344331500    -17.120593608200
     209   70  2  -0.48200      9.298412265510    -14.721029349000    -16.937690291300
     210   70  2  -0.48200      8.342651771690    -14.317659314000    -17.303496925100
     211   71  1   0.96400    -12.428708706700      2.061187924870    -11.176859056100
     212   71  2  -0.48200    -11.897931052600      1.977076353490    -11.059810666900
     213   71  2  -0.48200    -12.959486360900      2.145299496250    -11.293907445400
     214   72  1   0.96400     -2.327132760830    -15.499896778100     -8.608393830020
     215   72  2  -0.48200     -2.467225020530    -15.128144303400     -8.988754522370
     216   72  2  -0.48200     -2.187040501130    -15.871649252900     -8.228033137680
     217   73  1   0.96400     13.932779045100      2.576943408930     -8.152078359530
     218   73  2  -0.48200     14.295561786600      2.169117473160     -8.084501080970
     219   73  2  -0.48200     13.569996303600      2.984769344710     -8.219655638080
     220   74  1   0.96400     -6.677383978380    -15.404880019000    -11.695179172200
     221   74  2  -0.48200     -6.698069110090    -15.934504158900    -11.548310538000
     222   74  2  -0.48200     -6.656698846680    -14.875255879000    -11.842047806400
     223   75  1   0.96400     16.663883824900     -1.038516258260    -17.311701962400
     224   75  2  -0.48200     17.164224933700     -0.888036798258    -17.139903513700
     225   75  2  -0.48200     16.163542716100     -1.188995718270    -17.483500411100
     226   76  1   0.96400     -9.775940976880     10.599987144600    -10.473095833700
     227   76  2  -0.48200    -10.272614180400     10.600664803900    -10.709348388500
     228   76  2  -0.48200     -9.279267773340     10.599309485200    -10.236843278900
     229   77  1   0.96400     16.737996385600      7.761742449740      0.121747620887
     230   77  2  -0.48200     17.027171402300      8.144724914100      0.390452369029
     231   77  2  -0.48200     16.448821368800      7.378759985380     -0.146957127254
     232   78  1   0.96400     17.400505244700     18.198468777600    -19.869929743900
     233   78  2  -0.48200     17.892432252400     17.966150406500    -19.789084252300
     234   78  2  -0.48200     16.908578236900     18.430787148700    -19.950775235412
     235   79  1   0.96400     -9.776075305700    -13.950229682800    -16.650790217800
     236   79  2  -0.48200     -9.591942913940    -13.723444010800    -16.184782147800
     237   79  2  -0.48200     -9.960207697470    -14.177015354800    -17.116798287800
     238   80  1   0.96400    -14.698387105800    -13.121734576000     11.165338523000
     239   80  2  -0.48200    -14.339954639100    -13.520344595300     11.288367866700
     240   80  2  -0.48200    -15.056819572400    -12.723124556800     11.042309179300
     241   81  1   0.96400    -18.993532734200     -7.261159890070     16.612438860300
     242   81  2  -0.48200    -19.469549434400     -7.389874110520     16.368839290000
     243   81  2  -0.48200    -18.517516034100     -7.132445669630     16.856038430600
     244   82  1   0.96400     13.030615655300    -10.781358914000     13.716486108600
     245   82  2  -0.48200     13.236440366700    -10.462965910900     13.318036508600
     246   82  2  -0.48200     12.824790944000    -11.099751917100     14.114935708700
     247   83  1   0.96400     10.657373420700     -0.897042601758    -14.028050177800
     248   83  2  -0.48200     10.577137582200     -0.457733673181    -14.349095152100
     249   83  2  -0.48200     10.737609259100     -1.336351530340    -13.707005203600
     250   84  1   0.96400      4.167960637960     10.297824858900     -6.683117064160
     251   84  2  -0.48200      4.429466126040     10.259750085600     -6.200763261080
     252   84  2  -0.48200      3.906455149890     10.335899632200     -7.165470867240
     253   85  1   0.96400     -9.608964015550     18.107510005500     10.937553954400
     254   85  2  -0.48200     -9.135486508180     17.828176836300     10.920465052900
     255   85  2  -0.48200    -10.082441522900     18.386843174800     10.954642855900
     256   86  1   0.96400      4.212219738350    -10.218659018000     13.959734547600
     257   86  2  -0.48200      4.030993287140     -9.759016235480     14.201365435300
     258   86  2  -0.48200      4.393446189550    -10.678301800500     13.718103659900
     259   87  1   0.96400     -2.504940919260    -15.636887921700      3.363627719800
     260   87  2  -0.48200     -2.159509461860    -15.287281741200      3.610513577580
     261   87  2  -0.48200     -2.850372376660    -15.986494102200      3.116741862010
     262   88  1   0.96400    -18.668759356600     -9.785454735610    -18.610934427800
     263   88  2  -0.48200    -18.232311440700    -10.102779462200    -18.504547235400
     264   88  2  -0.48200    -19.105207272400     -9.468130009050    -18.717321620100
     265   89  1   0.96400      1.263342257160     11.307085449900     10.534537722700
     266   89  2  -0.48200      1.790032165990     11.172074845400     10.617422441400
     267   89  2  -0.48200      0.736652348325     11.442096054400     10.451653004000
     268   90  1   0.96400     12.687609610100      4.227017767480      3.622030981880
     269   90  2  -0.48200     12.725974949200      4.738368174750      3.820899938110
     270   90  2  -0.48200     12.649244271000      3.715667360220      3.423162025660
     271   91  1   0.96400     -9.193388681120     -8.165256996610     -2.567694979820
     272   91  2  -0.48200     -8.825107687160     -8.043504973510     -2.957625171460
     273   91  2  -0.48200     -9.561669675090     -8.287009019710     -2.177764788170
     274   92  1   0.96400     17.830748076800     -9.768059722260     14.930478524700
     275   92  2  -0.48200     18.066098191400     -9.949053298040     14.467497262500
     276   92  2  -0.48200     17.595397962100     -9.587066146490     15.393459786800
     277   93  1   0.96400    -13.049496446800     -6.728483646880     17.676682337500
     278   93  2  -0.48200    -13.096083078100     -7.096642245720     17.270740307300
     279   93  2  -0.48200    -13.002909815400     -6.360325048040     18.082624367700
     280   94  1   0.96400     11.196304681800    -12.299319804200     -7.616405585910
     281   94  2  -0.48200     11.550191736900    -11.962567060100     -7.869113997980
     282   94  2  -0.48200     10.842417626700    -12.636072548400     -7.363697173840
     283   95  1   0.96400    -16.048204457800     -3.746465744220      9.698835896620
     284   95  2  -0.48200    -15.973807621300     -4.181179961280     10.027452177700
     285   95  2  -0.48200    -16.122601294400     -3.311751527160      9.370219615530
     286   96  1   0.96400    -16.714582025900    -17.046770837700     11.497293333900
     287   96  2  -0.48200    -16.572572634100    -17.551482987200     11.331163930200
     288   96  2  -0.48200    -16.856591417700    -16.542058688200     11.663422737500
     289   97  1   0.96400      8.185960627320     -7.281233078220     -5.387933642610
     290   97  2  -0.48200      8.510343948110     -7.499226483290     -5.000952588110
     291   97  2  -0.48200      7.861577306540     -7.063239673150     -5.774914697120
     292   98  1   0.96400     -0.505048248038      5.243847884590    -11.501207722600
     293   98  2  -0.48200     -0.894032361069      5.466636576120    -11.182528324500
     294   98  2  -0.48200     -0.116064135006      5.021059193060    -11.819887120600
     295   99  1   0.96400     -2.273772035850      8.715755188360    -12.502284382900
     296   99  2  -0.48200     -2.691564568670      9.048929577880    -12.632454370500
     297   99  2  -0.48200     -1.855979503030      8.382580798840    -12.372114395200
     298  100  1   0.96400     10.275514815000      6.464368396960    -15.202545150700
     299  100  2  -0.48200     10.322317032800      5.969045108330    -15.436990010100
     300  100  2  -0.48200     10.228712597100      6.959691685600    -14.968100291200
     301  101  1   0.96400    -13.151346786900      1.458525761070    -18.217606900700
     302  101  2  -0.48200    -13.409158501000      1.658579578590    -17.774874938700
     303  101  2  -0.48200    -12.893535072800      1.258471943550    -18.660338862700
     304  102  1   0.96400     -5.757984490380      6.275422094560     -4.737346974980
     305  102  2  -0.48200     -5.469878108180      6.731284869980     -4.629255150490
     306  102  2  -0.48200     -6.046090872590      5.819559319140     -4.845438799460
     307  103  1   0.96400     -5.451255084030     10.967808806400     -3.082474131310
     308  103  2  -0.48200     -5.476687176140     11.091648187400     -2.547201288350
     309  103  2  -0.48200     -5.425822991930     10.843969425400     -3.617746974260
     310  104  1   0.96400    -19.613280826900    -17.626469385300     -6.431879012450
     311  104  2  -0.48200    -19.622210861200    -17.335423858900     -5.965282017100
     312  104  2  -0.48200    -19.604350792600    -17.917514911600     -6.898476007800
     313  105  1   0.96400     11.867886020500     15.631623284400     -6.774899112170
     314  105  2  -0.48200     12.280215189100     15.913152413300     -6.544191491290
     315  105  2  -0.48200     11.455556851900     15.350094155600     -7.005606733040
     316  106  1   0.96400    -17.666838952100     11.640456430600     -4.461025724270
     317  106  2  -0.48200    -17.627265294100     11.269246706100     -4.057123179060
     318  106  2  -0.48200    -17.706412610000     12.011666155100     -4.864928269480
     319  107  1   0.96400     -8.100056086730    -12.468848723400     -9.789408130120
     320  107  2  -0.48200     -8.244345591080    -12.986130356600     -9.670663652820
     321  107  2  -0.48200     -7.955766582380    -11.951567090200     -9.908152607420
     322  108  1   0.96400     10.244530140600     17.651847658700     -1.793362512750
     323  108  2  -0.48200     10.226292776800     17.110707587000     -1.889979392150
     324  108  2  -0.48200     10.262767504400     18.192987730400     -1.696745633340
     325  109  1   0.96400    -15.872616691400     17.784838065500     14.636889653900
     326  109  2  -0.48200    -16.165923065200     17.417320427500     14.922200286000
     327  109  2  -0.48200    -15.579310317600     18.152355703600     14.351579021800
     328  110  1   0.96400     19.000051659000      9.269992972400     -7.143885770220
     329  110  2  -0.48200     19.436385985000      9.161370127240     -6.827162810120
     330  110  2  -0.48200     18.563717333000      9.378615817550     -7.460608730320
     331  111  1   0.96400     -8.409657880920     -1.573366775110     16.158516681100
     332  111  2  -0.48200     -8.061636009400     -1.820572235150     16.505316677500
     333  111  2  -0.48200     -8.757679752430     -1.326161315070     15.811716684800
     334  112  1   0.96400    -15.906657916700    -19.394789581200     18.954600833800
     335  112  2  -0.48200    -16.414273025100    -19.498435089800     18.769980926000
     336  112  2  -0.48200    -15.399042808400    -19.291144072700     19.139220741500
     337  113  1   0.96400     18.689303234300    -13.702804490300     -8.053303531170
     338  113  2  -0.48200     18.464761022200    -14.204880807300     -8.053711967610
     339  113  2  -0.48200     18.913845446500    -13.200728173200     -8.052895094720
     340  114  1   0.96400    -16.008527489900     12.425963956600     -9.605517881060