LAMMPS Atom File

         3000 atoms
         2000 bonds
         1000 angles
           0 dihedrals
           0 impropers

           2 atom types
           1 bond types
           1 angle types

         0.0  549.645934214 xlo xhi
         0.0  549.645934214 ylo yhi
         0.0  549.645934214 zlo zhi

Masses

         1    1.0e-20
         2   14.00670

Atoms

       1    1  1   0.96400    -74.098452056800    273.180087825000     58.560655286400
       2    1  2  -0.48200    -74.124545294400    273.576571928000     58.180366582000
       3    1  2  -0.48200    -74.072358819300    272.783603721000     58.940943990800
       4    2  1   0.96400    235.087782951000   -226.512948550000    102.896432483000
       5    2  2  -0.48200    235.545087344000   -226.653235996000    103.167895417000
       6    2  2  -0.48200    234.630478558000   -226.372661104000    102.624969549000
       7    3  1   0.96400    -85.587926667200   -125.491615117000     49.206125924800
       8    3  2  -0.48200    -85.753222299100   -125.704058047000     48.726495488300
       9    3  2  -0.48200    -85.422631035200   -125.279172187000     49.685756361300
      10    4  1   0.96400    237.569132007000   -165.866850977000   -194.449572105000
      11    4  2  -0.48200    237.796905448000   -165.943236461000   -193.954815077000
      12    4  2  -0.48200    237.341358565000   -165.790465492000   -194.944329133000
      13    5  1   0.96400   -196.675029159000    255.436574010000    -92.897995347000
      14    5  2  -0.48200   -196.366992357000    255.157126374000    -92.538103213500
      15    5  2  -0.48200   -196.983065961000    255.716021645000    -93.257887480500
      16    6  1   0.96400    239.861052035000    270.918986035000    249.413768077000
      17    6  2  -0.48200    239.821252870000    270.415834547000    249.632296351000
      18    6  2  -0.48200    239.900851201000    271.422137523000    249.195239803000
      19    7  1   0.96400     13.478677445900    -63.021641706700    -59.743650673700
      20    7  2  -0.48200     13.480901737000    -62.567756652200    -60.054268461100
      21    7  2  -0.48200     13.476453154700    -63.475526761200    -59.433032886300
      22    8  1   0.96400   -162.684214600000    190.658368613000   -111.859581484000
      23    8  2  -0.48200   -162.805456547000    190.280790541000   -111.478484135000
      24    8  2  -0.48200   -162.562972653000    191.035946685000   -112.240678834000
      25    9  1   0.96400    213.636325809000   -230.917047567000    262.005671890000
      26    9  2  -0.48200    213.557064590000   -231.405116641000    262.246516732000
      27    9  2  -0.48200    213.715587027000   -230.428978492000    261.764827048000
      28   10  1   0.96400    156.111251325000   -170.075792220000   -146.384784569000
      29   10  2  -0.48200    155.822768798000   -170.528443934000   -146.504718958000
      30   10  2  -0.48200    156.399733851000   -169.623140506000   -146.264850180000
      31   11  1   0.96400   -233.523570745000   -124.911609418000    267.440039489000
      32   11  2  -0.48200   -233.799728699000   -125.372690564000    267.323244964000
      33   11  2  -0.48200   -233.247412792000   -124.450528271000    267.556834013000
      34   12  1   0.96400   -224.678746583000    170.132956312000    -28.425070318400
      35   12  2  -0.48200   -224.741260950000    170.281178483000    -27.899121516600
      36   12  2  -0.48200   -224.616232216000    169.984734141000    -28.951019120200
      37   13  1   0.96400   -226.577043982000   -136.648604366000    260.691802178000
      38   13  2  -0.48200   -226.718873265000   -137.078894073000    260.379976550000
      39   13  2  -0.48200   -226.435214699000   -136.218314658000    261.003627806000
      40   14  1   0.96400    245.750677798000   -160.778860830000   -141.387433527000
      41   14  2  -0.48200    245.842284139000   -161.122050252000   -141.807349351000
      42   14  2  -0.48200    245.659071456000   -160.435671408000   -140.967517703000
      43   15  1   0.96400   -192.351867258000     50.741035263000   -232.095729101000
      44   15  2  -0.48200   -192.688214350000     50.899714775900   -232.500934538000
      45   15  2  -0.48200   -192.015520166000     50.582355750200   -231.690523665000
      46   16  1   0.96400     21.606734037600   -216.144494773000     51.070599232600
      47   16  2  -0.48200     21.979371457300   -215.819372435000     51.311299915600
      48   16  2  -0.48200     21.234096618000   -216.469617111000     50.829898549600
      49   17  1   0.96400    -19.699946013800   -163.174789738000   -219.241650469000
      50   17  2  -0.48200    -19.934496061700   -163.352722126000   -219.706221605000
      51   17  2  -0.48200    -19.465395965900   -162.996857349000   -218.777079333000
      52   18  1   0.96400     19.875210411500     -6.666159616020   -118.023583034000
      53   18  2  -0.48200     19.815272141100     -7.208164544490   -117.951902763000
      54   18  2  -0.48200     19.935148681900     -6.124154687540   -118.095263305000
      55   19  1   0.96400    -67.360792476700   -121.340614320000    -98.946554127300
      56   19  2  -0.48200    -67.096241500600   -121.103743168000    -98.526548367200
      57   19  2  -0.48200    -67.625343452700   -121.577485472000    -99.366559887400
      58   20  1   0.96400    235.534153137000    -18.664486569300     97.231179245000
      59   20  2  -0.48200    236.071584714000    -18.780956020500     97.221071453700
      60   20  2  -0.48200    234.996721561000    -18.548017118100     97.241287036300
      61   21  1   0.96400    156.175321349000   -183.434943238000   -131.129644845000
      62   21  2  -0.48200    156.134088187000   -183.933969959000   -131.357179807000
      63   21  2  -0.48200    156.216554511000   -182.935916518000   -130.902109883000
      64   22  1   0.96400   -102.992151226000     20.746873265900    -39.147627233900
      65   22  2  -0.48200   -103.457063386000     21.031383647900    -39.221183511700
      66   22  2  -0.48200   -102.527239066000     20.462362884000    -39.074070956100
      67   23  1   0.96400     32.235070765500   -210.594418247000     41.723928767900
      68   23  2  -0.48200     31.747093645500   -210.343828349000     41.763716118400
      69   23  2  -0.48200     32.723047885400   -210.845008146000     41.684141417400
      70   24  1   0.96400    -94.222112929500    241.217866306000    -87.650622249700
      71   24  2  -0.48200    -94.032279248300    241.733857608000    -87.635920249500
      72   24  2  -0.48200    -94.411946610800    240.701875003000    -87.665324249800
      73   25  1   0.96400   -176.961755209000    -46.381704022200    259.291050453000
      74   25  2  -0.48200   -176.734944907000    -46.671092722000    259.700087453000
      75   25  2  -0.48200   -177.188565511000    -46.092315322400    258.882013453000
      76   26  1   0.96400    127.295715330000    149.254122769000   -271.146557096000
      77   26  2  -0.48200    126.993950045000    148.986131426000   -270.772901703000
      78   26  2  -0.48200    127.597480616000    149.522114112000   -271.520212489000
      79   27  1   0.96400     19.762976599000    -21.790413388700   -118.411612568000
      80   27  2  -0.48200     19.693908740900    -22.316563589300   -118.267059472000
      81   27  2  -0.48200     19.832044457000    -21.264263188100   -118.556165663000
      82   28  1   0.96400   -222.460490948000    166.395472630000    -43.200596864500
      83   28  2  -0.48200   -222.479288646000    166.256222270000    -43.732344909900
      84   28  2  -0.48200   -222.441693250000    166.534722990000    -42.668848819000
      85   29  1   0.96400    114.210884994000    150.559340164000   -263.154242059000
      86   29  2  -0.48200    113.669414407000    150.480525276000   -263.098584028000
      87   29  2  -0.48200    114.752355581000    150.638155053000   -263.209900091000
      88   30  1   0.96400    147.981896719000    148.250196862000     70.861236277200
      89   30  2  -0.48200    148.214808618000    148.745635554000     70.808391698800
      90   30  2  -0.48200    147.748984819000    147.754758170000     70.914080855600
      91   31  1   0.96400     32.638265316300   -246.792505176000    233.568889497000
      92   31  2  -0.48200     32.296910492300   -246.995314862000    233.188304270000
      93   31  2  -0.48200     32.979620140300   -246.589695491000    233.949474725000
      94   32  1   0.96400    143.865537655000    -25.734041588800    222.858806952000
      95   32  2  -0.48200    143.432827446000    -25.522696925900    222.593109175000
      96   32  2  -0.48200    144.298247865000    -25.945386251800    223.124504728000
      97   33  1   0.96400   -162.153460612000    175.974719967000   -115.226900186000
      98   33  2  -0.48200   -161.760216348000    175.697696951000   -114.960222107000
      99   33  2  -0.48200   -162.546704876000    176.251742983000   -115.493578264000
     100   34  1   0.96400    -97.057837782500      6.376596879710   -249.012128008000
     101   34  2  -0.48200    -97.391738168700      6.011389115380   -249.252198458000
     102   34  2  -0.48200    -96.723937396300      6.741804644040   -248.772057558000
     103   35  1   0.96400    203.391087518000   -156.818021501000   -117.904895788000
     104   35  2  -0.48200    202.913540444000   -156.560329060000   -117.994580781000
     105   35  2  -0.48200    203.868634591000   -157.075713942000   -117.815210794000
     106   36  1   0.96400   -227.693754909000   -135.757897953000      4.308678986120
     107   36  2  -0.48200   -227.143761748000   -135.755901366000      4.310559649490
     108   36  2  -0.48200   -228.243748070000   -135.759894540000      4.306798322740
     109   37  1   0.96400     18.557802128900   -242.276367481000    229.588289710000
     110   37  2  -0.48200     18.910358005000   -242.259013546000    230.010075432000
     111   37  2  -0.48200     18.205246252800   -242.293721416000    229.166503988000
     112   38  1   0.96400    -75.524352976100     55.940907932100    157.438542836000
     113   38  2  -0.48200    -75.995240562000     55.979878783000    157.720049770000
     114   38  2  -0.48200    -75.053465390200     55.901937081100    157.157035901000
     115   39  1   0.96400    164.101725294000   -249.345824764000    180.840114793000
     116   39  2  -0.48200    163.736222506000   -249.432838295000    181.241781766000
     117   39  2  -0.48200    164.467228083000   -249.258811234000    180.438447820000
     118   40  1   0.96400   -100.284404013000   -119.631695454000    -71.820968693400
     119   40  2  -0.48200   -100.441351546000   -120.158296143000    -71.844615802900
     120   40  2  -0.48200   -100.127456479000   -119.105094765000    -71.797321584000
     121   41  1   0.96400    241.891044774000   -179.560569531000   -189.441536734000
     122   41  2  -0.48200    241.973254015000   -179.025140337000   -189.346367311000
     123   41  2  -0.48200    241.808835533000   -180.095998724000   -189.536706157000
     124   42  1   0.96400      4.949028923840    -50.361954069800    -58.936733960800
     125   42  2  -0.48200      5.057913384620    -50.723309945200    -59.336816584200
     126   42  2  -0.48200      4.840144463070    -50.000598194400    -58.536651337400
     127   43  1   0.96400    -84.193793824800     61.116093682100    168.895728030000
     128   43  2  -0.48200    -84.047705392600     61.116575466000    169.425971312000
     129   43  2  -0.48200    -84.339882257000     61.115611898200    168.365484748000
     130   44  1   0.96400    129.869092627000    210.466543962000   -141.422246327000
     131   44  2  -0.48200    130.095005400000    209.974620359000   -141.519583818000
     132   44  2  -0.48200    129.643179854000    210.958467566000   -141.324908836000
     133   45  1   0.96400   -128.588858229000   -139.811424642000   -111.308536583000
     134   45  2  -0.48200   -128.099289203000   -139.569950820000   -111.375712189000
     135   45  2  -0.48200   -129.078427256000   -140.052898463000   -111.241360977000
     136   46  1   0.96400    -80.792006028600    245.855919129000    -81.936441240700
     137   46  2  -0.48200    -80.316293523600    246.003552743000    -81.703199030100
     138   46  2  -0.48200    -81.267718533500    245.708285515000    -82.169683451300
     139   47  1   0.96400     -2.590112924250    150.416352420000   -109.488693776000
     140   47  2  -0.48200     -2.609580481950    149.888178269000   -109.336532412000
     141   47  2  -0.48200     -2.570645366550    150.944526570000   -109.640855140000
     142   48  1   0.96400    147.137678069000   -200.211540703000   -163.735167965000
     143   48  2  -0.48200    147.403025421000   -200.685530907000   -163.821331005000
     144   48  2  -0.48200    146.872330718000   -199.737550499000   -163.649004925000
     145   49  1   0.96400   -231.939657127000    170.955210709000     23.000090236200
     146   49  2  -0.48200   -232.015524636000    171.406244915000     23.305560800500
     147   49  2  -0.48200   -231.863789619000    170.504176502000     22.694619672000
     148   50  1   0.96400   -212.771400758000   -245.930958206000    270.344664545000
     149   50  2  -0.48200   -213.068385633000   -245.650660928000    270.713084713000
     150   50  2  -0.48200   -212.474415883000   -246.211255484000    269.976244378000
     151   51  1   0.96400   -213.826938875000   -138.605056105000     10.517161582600
     152   51  2  -0.48200   -213.469208030000   -138.937772038000     10.769805106400
     153   51  2  -0.48200   -214.184669720000   -138.272340171000     10.264518058800
     154   52  1   0.96400    -45.659851064500    -57.756012994800    243.801379123000
     155   52  2  -0.48200    -45.315882892500    -57.908817887800    243.400334785000
     156   52  2  -0.48200    -46.003819236600    -57.603208101800    244.202423461000
     157   53  1   0.96400   -231.802893966000    169.660280315000     38.194202227500
     158   53  2  -0.48200   -232.047244295000    170.004032289000     37.841176028900
     159   53  2  -0.48200   -231.558543636000    169.316528341000     38.547228426200
     160   54  1   0.96400   -193.153521210000    147.307320874000   -186.001094072000
     161   54  2  -0.48200   -193.358551221000    147.814020950000   -185.940120902000
     162   54  2  -0.48200   -192.948491198000    146.800620798000   -186.062067242000
     163   55  1   0.96400   -100.029849975000    227.729125527000    -82.857932064000
     164   55  2  -0.48200    -99.819378418200    228.212890858000    -82.702455927400
     165   55  2  -0.48200   -100.240321531000    227.245360197000    -83.013408200600
     166   56  1   0.96400    -86.395815559900      6.823626751470   -238.152545908000
     167   56  2  -0.48200    -86.266963120000      7.125852255730   -237.711459983000
     168   56  2  -0.48200    -86.524667999800      6.521401247220   -238.593631833000
     169   57  1   0.96400   -200.335439013000    -36.399941666900   -255.192104284000
     170   57  2  -0.48200   -200.526425313000    -36.904130352400   -255.083393648000
     171   57  2  -0.48200   -200.144452712000    -35.895752981500   -255.300814920000
     172   58  1   0.96400   -181.080891399000    -44.324398895500    273.255714483000
     173   58  2  -0.48200   -180.657988144000    -44.639965207300    273.410861962000
     174   58  2  -0.48200   -181.503794653000    -44.008832583800    273.100567005000
     175   59  1   0.96400   -107.384594720000    130.839262243000   -233.480425106000
     176   59  2  -0.48200   -107.175275274000    130.538254673000   -233.070449726000
     177   59  2  -0.48200   -107.593914167000    131.140269813000   -233.890400486000
     178   60  1   0.96400    -61.346450689300    157.742338910000    167.825011836000
     179   60  2  -0.48200    -60.894832154900    157.787593729000    167.514379093000
     180   60  2  -0.48200    -61.798069223700    157.697084090000    168.135644578000
     181   61  1   0.96400    -93.308830889200    174.614495151000   -195.447803354000
     182   61  2  -0.48200    -93.001601442800    174.319653050000   -195.795909951000
     183   61  2  -0.48200    -93.616060335700    174.909337252000   -195.099696758000
     184   62  1   0.96400    132.662751120000   -142.254905322000    209.362295719000
     185   62  2  -0.48200    132.404462617000   -142.739310404000    209.328550126000
     186   62  2  -0.48200    132.921039624000   -141.770500239000    209.396041313000
     187   63  1   0.96400    214.766417162000   -223.312941196000    222.003002054000
     188   63  2  -0.48200    214.789119938000   -223.437247755000    221.467714782000
     189   63  2  -0.48200    214.743714386000   -223.188634636000    222.538289326000
     190   64  1   0.96400    157.447587923000   -168.451348789000   -131.492807769000
     191   64  2  -0.48200    157.601400274000   -168.019337741000   -131.796465825000
     192   64  2  -0.48200    157.293775572000   -168.883359837000   -131.189149713000
     193   65  1   0.96400     50.541275883500    -44.002509684300     85.428395063500
     194   65  2  -0.48200     51.079938457800    -43.891556173500     85.434047450300
     195   65  2  -0.48200     50.002613309200    -44.113463195100     85.422742676700
     196   66  1   0.96400   -101.118600248000    174.783205755000   -182.174356403000
     197   66  2  -0.48200   -101.384605391000    174.949792608000   -181.722703788000
     198   66  2  -0.48200   -100.852595106000    174.616618901000   -182.626009018000
     199   67  1   0.96400    161.662986426000   -166.882745073000    252.367930802000
     200   67  2  -0.48200    162.025025102000   -166.517763904000    252.563421834000
     201   67  2  -0.48200    161.300947751000   -167.247726242000    252.172439770000
     202   68  1   0.96400    219.513289602000    212.385609165000      2.424695058180
     203   68  2  -0.48200    219.628180527000    212.273603177000      1.898620221510
     204   68  2  -0.48200    219.398398676000    212.497615154000      2.950769894840
     205   69  1   0.96400    166.508339245000   -258.339362981000    149.771826288000
     206   69  2  -0.48200    166.227636578000   -258.717846217000    149.488177821000
     207   69  2  -0.48200    166.789041911000   -257.960879745000    150.055474755000
     208   70  1   0.96400    -74.757035935100    164.881294516000    166.897438542000
     209   70  2  -0.48200    -75.010215544600    165.153475980000    166.492077794000
     210   70  2  -0.48200    -74.503856325700    164.609113052000    167.302799290000
     211   71  1   0.96400      6.369690145870   -176.804238862000    177.045136128000
     212   71  2  -0.48200      6.692286576730   -177.240417184000    177.135579562000
     213   71  2  -0.48200      6.047093715020   -176.368060541000    176.954692695000
     214   72  1   0.96400    145.450555391000   -186.163922141000   -157.771881474000
     215   72  2  -0.48200    145.755478276000   -186.621538190000   -157.782349831000
     216   72  2  -0.48200    145.145632506000   -185.706306093000   -157.761413117000
     217   73  1   0.96400    157.822666578000     82.309956499400    -63.652425942100
     218   73  2  -0.48200    158.318353671000     82.085773387700    -63.571578933600
     219   73  2  -0.48200    157.326979486000     82.534139611000    -63.733272950500
     220   74  1   0.96400   -151.924622934000   -163.393500259000      8.702540786610
     221   74  2  -0.48200   -152.140705521000   -162.899183984000      8.809590940850
     222   74  2  -0.48200   -151.708540346000   -163.887816534000      8.595490632380
     223   75  1   0.96400    131.351175344000    -19.153125401300   -194.754998050000
     224   75  2  -0.48200    131.478359116000    -18.767694773400   -195.126168522000
     225   75  2  -0.48200    131.223991573000    -19.538556029200   -194.383827578000
     226   76  1   0.96400   -200.254063364000    -32.913760293100   -269.141838631000
     227   76  2  -0.48200   -200.290898815000    -33.333910408900   -268.788827257000
     228   76  2  -0.48200   -200.217227912000    -32.493610177200   -269.494850004000
     229   77  1   0.96400     56.196551905700   -200.899298388000    -97.251416782200
     230   77  2  -0.48200     55.720915596200   -200.977835408000    -96.986648888400
     231   77  2  -0.48200     56.672188215100   -200.820761367000    -97.516184676000
     232   78  1   0.96400   -206.304604377000    153.229774313000   -181.235973419000
     233   78  2  -0.48200   -206.794008602000    153.018181705000   -181.370925533000
     234   78  2  -0.48200   -205.815200152000    153.441366921000   -181.101021305000
     235   79  1   0.96400    241.194345623000   -229.749651957000    116.355792249000
     236   79  2  -0.48200    240.896471708000   -229.356803168000    116.111987083000
     237   79  2  -0.48200    241.492219538000   -230.142500747000    116.599597416000
     238   80  1   0.96400   -144.967425471000   -133.386645680000    -66.218919401300
     239   80  2  -0.48200   -145.294913165000   -133.725495304000    -65.935312732300
     240   80  2  -0.48200   -144.639937777000   -133.047796056000    -66.502526070200
     241   81  1   0.96400    -86.289124031300   -140.291832076000    -70.221005908000
     242   81  2  -0.48200    -86.267688993200   -140.493719295000    -70.732163505700
     243   81  2  -0.48200    -86.310559069300   -140.089944856000    -69.709848310400
     244   82  1   0.96400    -75.815616314000   -125.407941229000   -110.952609619000
     245   82  2  -0.48200    -75.398314244400   -125.666891833000   -110.705014047000
     246   82  2  -0.48200    -76.232918383600   -125.148990624000   -111.200205190000
     247   83  1   0.96400     61.679319238200    -38.630738125700     76.632354890000
     248   83  2  -0.48200     61.837468946100    -38.383916800900     76.166986322600
     249   83  2  -0.48200     61.521169530200    -38.877559450400     77.097723457400
     250   84  1   0.96400    178.054457765000   -254.080918651000    158.912337851000
     251   84  2  -0.48200    177.643529615000   -253.962030951000    158.566644677000
     252   84  2  -0.48200    178.465385915000   -254.199806351000    159.258031025000
     253   85  1   0.96400    229.652881819000    168.649467227000    136.999329152000
     254   85  2  -0.48200    229.361220801000    169.097599228000    136.870443308000
     255   85  2  -0.48200    229.944542838000    168.201335227000    137.128214995000
     256   86  1   0.96400   -220.383239097000   -233.781514268000    216.001628579000
     257   86  2  -0.48200   -219.906973135000   -233.520962606000    215.913404068000
     258   86  2  -0.48200   -220.859505060000   -234.042065930000    216.089853090000
     259   87  1   0.96400    115.447077766000   -268.042474008000   -245.372314927000
     260   87  2  -0.48200    115.839060695000   -268.422797489000   -245.437148817000
     261   87  2  -0.48200    115.055094837000   -267.662150527000   -245.307481038000
     262   88  1   0.96400     80.258448072100   -121.431995115000   -215.887395635000
     263   88  2  -0.48200     80.109213348800   -121.897558229000   -215.635443289000
     264   88  2  -0.48200     80.407682795500   -120.966432002000   -216.139347982000
     265   89  1   0.96400     71.801350814400    -27.580577860900     73.846193491500
     266   89  2  -0.48200     72.309842458100    -27.698199021400     73.672695621300
     267   89  2  -0.48200     71.292859170800    -27.462956700400     74.019691361700
     268   90  1   0.96400   -227.477738723000     74.817406080600     37.883567809300
     269   90  2  -0.48200   -227.523165480000     74.708926176300     38.420846619700
     270   90  2  -0.48200   -227.432311966000     74.925885985000     37.346288998900
     271   91  1   0.96400    267.381964999000    241.031306977000      5.467777169580
     272   91  2  -0.48200    267.866460623000    240.939382591000      5.224232724350
     273   91  2  -0.48200    266.897469374000    241.123231364000      5.711321614810
     274   92  1   0.96400    116.015660860000    179.817350067000     14.925246608700
     275   92  2  -0.48200    115.700635680000    179.571994039000     15.303478753500
     276   92  2  -0.48200    116.330686039000    180.062706096000     14.547014463800
     277   93  1   0.96400    -69.571838992100    265.941547493000     70.943523766000
     278   93  2  -0.48200    -69.256032591000    265.810560681000     71.374347131200
     279   93  2  -0.48200    -69.887645393300    266.072534305000     70.512700400700
     280   94  1   0.96400    143.504451265000    -78.970875697800    160.185824748000
     281   94  2  -0.48200    143.091834320000    -78.611635923700    160.129308895000
     282   94  2  -0.48200    143.917068210000    -79.330115471900    160.242340602000
     283   95  1   0.96400   -226.813385859000    257.745483260000    171.355215478000
     284   95  2  -0.48200   -227.125866851000    258.109527662000    171.086278119000
     285   95  2  -0.48200   -226.500904868000    257.381438858000    171.624152838000
     286   96  1   0.96400    204.382238584000    134.962585805000    -94.382022331300
     287   96  2  -0.48200    204.660790446000    135.435706333000    -94.349375346200
     288   96  2  -0.48200    204.103686722000    134.489465276000    -94.414669316500
     289   97  1   0.96400    143.176978874000      6.411226580640     96.224856685900
     290   97  2  -0.48200    143.604385935000      6.712253287940     96.395754685200
     291   97  2  -0.48200    142.749571814000      6.110199873340     96.053958686600
     292   98  1   0.96400     71.722255607100    123.110718680000    258.629442815000
     293   98  2  -0.48200     72.185080596600    122.853147291000    258.481287460000
     294   98  2  -0.48200     71.259430617700    123.368290069000    258.777598169000
     295   99  1   0.96400   -199.263717602000   -251.698631563000    266.984774128000
     296   99  2  -0.48200   -198.937607868000   -252.141324822000    266.998007400000
     297   99  2  -0.48200   -199.589827336000   -251.255938303000    266.971540856000
     298  100  1   0.96400    267.657936152000    264.275451040000   -132.950774008000
     299  100  2  -0.48200    267.303649919000    263.931012027000   -133.192317030000
     300  100  2  -0.48200    268.012222385000    264.619890053000   -132.709230987000
     301  101  1   0.96400   -148.196352909000    111.547801829000    150.360057878000
     302  101  2  -0.48200   -148.494550953000    112.001342978000    150.448817964000
     303  101  2  -0.48200   -147.898154865000    111.094260680000    150.271297792000
     304  102  1   0.96400     52.791118125800   -192.597991136000   -109.405244946000
     305  102  2  -0.48200     52.932020690300   -193.108074796000   -109.555115313000
     306  102  2  -0.48200     52.650215561300   -192.087907476000   -109.255374578000
     307  103  1   0.96400     74.003685531000    -44.531107616900     70.335494533500
     308  103  2  -0.48200     73.540237699700    -44.489600099100     70.042248504300
     309  103  2  -0.48200     74.467133362300    -44.572615134600     70.628740562800
     310  104  1   0.96400    262.014762036000   -116.977013861000     -0.356602038829
     311  104  2  -0.48200    262.302899522000   -116.860518513000     -0.810370286925
     312  104  2  -0.48200    261.726624549000   -117.093509209000      0.097166209266
     313  105  1   0.96400     32.201869386600   -237.606056690000    -61.705516675500
     314  105  2  -0.48200     32.317601463900   -238.028843597000    -61.373315956200
     315  105  2  -0.48200     32.086137309300   -237.183269783000    -62.037717394900
     316  106  1   0.96400   -232.994314418000    256.958369923000    157.386957565000
     317  106  2  -0.48200   -233.361298211000    257.084647639000    156.997243779000
     318  106  2  -0.48200   -232.627330626000    256.832092207000    157.776671350000
     319  107  1   0.96400   -178.355188205000     51.633168198800   -230.248781584000
     320  107  2  -0.48200   -177.866878281000     51.724981965800   -230.012934916000
     321  107  2  -0.48200   -178.843498128000     51.541354431800   -230.484628252000
     322  108  1   0.96400    234.672517715000    239.607414191000    -19.540971629500
     323  108  2  -0.48200    235.135062209000    239.503381246000    -19.262171095500
     324  108  2  -0.48200    234.209973222000    239.711447136000    -19.819772163500
     325  109  1   0.96400   -270.808821576000    243.503947618000     -4.552364613390
     326  109  2  -0.48200   -270.300098233000    243.530285738000     -4.759745577680
     327  109  2  -0.48200   -271.317544918000    243.477609497000     -4.344983649090
     328  110  1   0.96400   -209.925293205000   -222.434645297000    214.770718715000
     329  110  2  -0.48200   -210.314545741000   -222.809657260000    214.872446250000
     330  110  2  -0.48200   -209.536040669000   -222.059633335000    214.668991180000
     331  111  1   0.96400    237.686830095000    196.902661384000    176.909361324000
     332  111  2  -0.48200    238.008628401000    196.631312198000    177.263360574000
     333  111  2  -0.48200    237.365031789000    197.174010571000    176.555362073000
     334  112  1   0.96400    220.786320995000    -17.139905338200     93.647497194500
     335  112  2  -0.48200    220.496361425000    -16.681466196600     93.738365239100
     336  112  2  -0.48200    221.076280564000    -17.598344479700     93.556629149900
     337  113  1   0.96400     70.892805798100    186.599335402000    122.412318133000
     338  113  2  -0.48200     70.569125595000    186.502889134000    121.978233759000
     339  113  2  -0.48200     71.216486001200    186.695781669000    122.846402507000
     340  114  1   0.96400    126.079012428000    -33.288532806400   -193.802782908000