LAMMPS Atom File

         3000 atoms
         2000 bonds
         1000 angles
           0 dihedrals
           0 impropers

           2 atom types
           1 bond types
           1 angle types

         0.0  41.3422141602 xlo xhi
         0.0  41.3422141602 ylo yhi
         0.0  41.3422141602 zlo zhi

Masses

         1    1.0e-20
         2   14.00670

Atoms

       1    1  1   0.96400    -14.608783840800     12.769381497100      5.440154817310
       2    1  2  -0.48200    -14.547821315200     12.999367281300      5.936027895360
       3    1  2  -0.48200    -14.669746366300     12.539395712900      4.944281739260
       4    2  1   0.96400     10.194633561400      1.733438787070      1.587685666520
       5    2  2  -0.48200      9.786711358170      1.848918116820      1.938062607080
       6    2  2  -0.48200     10.602555764700      1.617959457310      1.237308725950
       7    3  1   0.96400    -12.849211116500    -19.841098185200     18.882493939400
       8    3  2  -0.48200    -13.012370557400    -19.317089170700     18.918459890100
       9    3  2  -0.48200    -12.686051675700    -20.365107199700     18.846527988800
      10    4  1   0.96400     13.310726537400    -18.289844462600      1.967241315910
      11    4  2  -0.48200     13.354662969100    -17.785088089700      1.753253947240
      12    4  2  -0.48200     13.266790105700    -18.794600835500      2.181228684580
      13    5  1   0.96400    -10.474682454000    -20.128139019300     -1.640588486350
      14    5  2  -0.48200    -10.760606764500    -20.184590076200     -1.174154603760
      15    5  2  -0.48200    -10.188758143400    -20.071687962400     -2.107022368940
      16    6  1   0.96400     -7.691368636550     14.311903830100    -16.158621132000
      17    6  2  -0.48200     -8.176113738010     14.247595130300    -16.410388043600
      18    6  2  -0.48200     -7.206623535080     14.376212529800    -15.906854220500
      19    7  1   0.96400     17.739699455900      2.460133437650     -1.085539813500
      20    7  2  -0.48200     17.828493217200      1.917423188790     -1.094553898230
      21    7  2  -0.48200     17.650905694600      3.002843686520     -1.076525728780
      22    8  1   0.96400     16.573037708500      0.232762393259      3.205403478390
      23    8  2  -0.48200     16.909974009100     -0.149242148098      2.997927070690
      24    8  2  -0.48200     16.236101408000      0.614766934617      3.412879886090
      25    9  1   0.96400      5.814006595360     18.562561147600    -19.742474579700
      26    9  2  -0.48200      5.632084142020     18.043749542400    -19.727023390800
      27    9  2  -0.48200      5.995929048700     19.081372752900    -19.757925768600
      28   10  1   0.96400     15.541009576300     -4.169857359040     18.745433691900
      29   10  2  -0.48200     15.602679648100     -3.878810611230     18.282844681200
      30   10  2  -0.48200     15.479339504600     -4.460904106850     19.208022702600
      31   11  1   0.96400     -3.171374791220     -7.225181505410    -10.633816912900
      32   11  2  -0.48200     -3.121718410950     -7.036429795380    -10.119611666100
      33   11  2  -0.48200     -3.221031171500     -7.413933215450    -11.148022159700
      34   12  1   0.96400     -9.629082916960     -3.468856427360      3.240454873200
      35   12  2  -0.48200     -9.352840135110     -3.452228589630      3.715758397790
      36   12  2  -0.48200     -9.905325698810     -3.485484265090      2.765151348610
      37   13  1   0.96400    -13.094737249100    -16.143094794500     12.945522814500
      38   13  2  -0.48200    -12.914170735200    -16.659026452800     13.006434702600
      39   13  2  -0.48200    -13.275303762900    -15.627163136300     12.884610926400
      40   14  1   0.96400    -15.623785735700     -5.785007964580     14.003941616300
      41   14  2  -0.48200    -15.503763964500     -5.308231589900     14.250475717300
      42   14  2  -0.48200    -15.743807506900     -6.261784339270     13.757407515200
      43   15  1   0.96400      9.233026290810     13.791205956000     18.272288466500
      44   15  2  -0.48200      9.403442625290     13.806668344900     18.794992194600
      45   15  2  -0.48200      9.062609956320     13.775743567200     17.749584738300
      46   16  1   0.96400    -18.341231597700    -19.534939912700      2.830848250350
      47   16  2  -0.48200    -18.005135555900    -19.832984514100      2.513501647540
      48   16  2  -0.48200    -18.677327639500    -19.236895311400      3.148194853150
      49   17  1   0.96400     -8.401151901580     -6.875038079440      7.234666145210
      50   17  2  -0.48200     -8.746048417240     -7.207226666790      7.505215837360
      51   17  2  -0.48200     -8.056255385930     -6.542849492090      6.964116453060
      52   18  1   0.96400      1.412251754030     -3.543011333240     17.521767157500
      53   18  2  -0.48200      0.911859787107     -3.339979817250     17.626103550700
      54   18  2  -0.48200      1.912643720950     -3.746042849240     17.417430764200
      55   19  1   0.96400    -14.064076352300     -1.613805733960    -15.287883159400
      56   19  2  -0.48200    -14.298648772400     -1.831773711710    -14.840707868900
      57   19  2  -0.48200    -13.829503932200     -1.395837756210    -15.735058449800
      58   20  1   0.96400     13.950672216400    -16.206812638400      8.467335060380
      59   20  2  -0.48200     14.043140711900    -16.746098693500      8.523193167890
      60   20  2  -0.48200     13.858203720900    -15.667526583400      8.411476952880
      61   21  1   0.96400      2.188391845040     -7.353409272930     11.917833741700
      62   21  2  -0.48200      1.784108938500     -7.038715085900     11.717776499600
      63   21  2  -0.48200      2.592674751590     -7.668103459970     12.117890983800
      64   22  1   0.96400      2.001154626310     -7.409552851630     19.066133585600
      65   22  2  -0.48200      2.423849814200     -7.057677922470     19.069713021300
      66   22  2  -0.48200      1.578459438420     -7.761427780790     19.062554149900
      67   23  1   0.96400    -16.545960891500      1.889200107170    -16.510497151800
      68   23  2  -0.48200    -16.752758266400      2.274617437430    -16.843946289300
      69   23  2  -0.48200    -16.339163516600      1.503782776910    -16.177048014400
      70   24  1   0.96400    -17.201173523600     17.522992532300     -1.312359581610
      71   24  2  -0.48200    -16.722927632700     17.379259176900     -1.081878366680
      72   24  2  -0.48200    -17.679419414400     17.666725887700     -1.542840796530
      73   25  1   0.96400     -5.906372866580    -11.678006878200     11.669217975900
      74   25  2  -0.48200     -5.885031569860    -11.203678465900     11.946809593800
      75   25  2  -0.48200     -5.927714163310    -12.152335290400     11.391626357900
      76   26  1   0.96400     11.616644372600     -3.625822324540     10.194637772400
      77   26  2  -0.48200     12.002854116400     -3.959364420970     10.399800399800
      78   26  2  -0.48200     11.230434628700     -3.292280228100      9.989475145010
      79   27  1   0.96400     15.608716628600    -13.126387959600    -10.381872196400
      80   27  2  -0.48200     15.342826648000    -12.973664958200     -9.925278062540
      81   27  2  -0.48200     15.874606609300    -13.279110961000    -10.838466330200
      82   28  1   0.96400    -11.009715016900      3.585530780500      5.904339934740
      83   28  2  -0.48200    -11.451398531600      3.491583898760      5.590350036440
      84   28  2  -0.48200    -10.568031502200      3.679477662250      6.218329833040
      85   29  1   0.96400     16.065194361700     -8.259303509900    -16.266264051000
      86   29  2  -0.48200     16.354624417400     -8.086417432110    -15.831706060700
      87   29  2  -0.48200     15.775764306000     -8.432189587700    -16.700822041300
      88   30  1   0.96400    -19.117802165000      4.075650739840    -17.201444068500
      89   30  2  -0.48200    -18.738567622100      4.456666400720    -17.317668969500
      90   30  2  -0.48200    -19.497036707900      3.694635078960    -17.085219167400
      91   31  1   0.96400     19.101938751600     20.034668114900     12.100686825500
      92   31  2  -0.48200     19.384742004300     20.040073846200     12.572378566300
      93   31  2  -0.48200     18.819135498900     20.029262383500     11.628995084700
      94   32  1   0.96400    -10.912538396600     -4.225671148080      8.968427597900
      95   32  2  -0.48200    -10.510982861800     -3.850148885300      8.953059363160
      96   32  2  -0.48200    -11.314093931300     -4.601193410850      8.983795832650
      97   33  1   0.96400     13.920700622800     15.787994232800     20.041994532400
      98   33  2  -0.48200     13.930720852800     15.279294297100     19.833131011300
      99   33  2  -0.48200     13.910680392700     16.296694168500     20.250858053400
     100   34  1   0.96400      6.169091216340     -6.456818678470      6.318602936290
     101   34  2  -0.48200      5.717587168750     -6.150126872860      6.250895984040
     102   34  2  -0.48200      6.620595263930     -6.763510484080      6.386309888540
     103   35  1   0.96400     13.404606754300    -19.883897477600     20.370464407100
     104   35  2  -0.48200     13.690831784200    -19.454803421300     20.561392464500
     105   35  2  -0.48200     13.118381724500    -20.312991534000     20.179536349800
     106   36  1   0.96400    -10.813116928100    -13.883890181700      5.713999810250
     107   36  2  -0.48200    -10.854322531200    -13.433402309600      6.026830076390
     108   36  2  -0.48200    -10.771911325100    -14.334378053700      5.401169544120
     109   37  1   0.96400     -6.144248611170     -7.528637294420     17.686991978800
     110   37  2  -0.48200     -6.478536822220     -7.189150946660     17.961765361100
     111   37  2  -0.48200     -5.809960400120     -7.868123642180     17.412218596500
     112   38  1   0.96400     17.983999711700    -12.097424096200    -13.599674784500
     113   38  2  -0.48200     17.947756892200    -12.246991237400    -14.127705208100
     114   38  2  -0.48200     18.020242531200    -11.947856955100    -13.071644360800
     115   39  1   0.96400     -3.278632817940     15.283248056100     17.356954117200
     116   39  2  -0.48200     -3.724850854680     15.196725839500     17.666636809200
     117   39  2  -0.48200     -2.832414781200     15.369770272700     17.047271425200
     118   40  1   0.96400      0.903284451200      1.796180449920     -2.452937572990
     119   40  2  -0.48200      0.748834505846      1.721568870370     -1.930368604740
     120   40  2  -0.48200      1.057734396550      1.870792029460     -2.975506541240
     121   41  1   0.96400     19.143901250900     -3.207174092130    -16.756688059500
     122   41  2  -0.48200     18.874418131000     -3.658936608130    -16.596097034800
     123   41  2  -0.48200     19.413384370900     -2.755411576140    -16.917279084200
     124   42  1   0.96400     14.498460089300     13.337222540200      1.834884385620
     125   42  2  -0.48200     15.037235910700     13.245920196900      1.897210113690
     126   42  2  -0.48200     13.959684267900     13.428524883500      1.772558657540
     127   43  1   0.96400    -12.393655938000     -9.950283452550    -18.689030438000
     128   43  2  -0.48200    -12.174180578700     -9.861468724860    -19.185460202300
     129   43  2  -0.48200    -12.613131297200    -10.039098180200    -18.192600673800
     130   44  1   0.96400     -5.472547396960     10.996397627500     -7.064003167530
     131   44  2  -0.48200     -5.656104517290     11.070130650100     -6.550807079320
     132   44  2  -0.48200     -5.288990276640     10.922664605000     -7.577199255750
     133   45  1   0.96400     11.149602476700     11.082797162900      0.901697760490
     134   45  2  -0.48200     11.086777979600     10.951121980200      1.431994591360
     135   45  2  -0.48200     11.212426973700     11.214472345500      0.371400929617
     136   46  1   0.96400     -5.249328629490     -8.032712293820     -5.090341886540
     137   46  2  -0.48200     -5.639298919470     -7.668653739550     -5.224074986410
     138   46  2  -0.48200     -4.859358339510     -8.396770848080     -4.956608786680
     139   47  1   0.96400    -13.723877081500     20.248877678400     -6.976901288000
     140   47  2  -0.48200    -13.720814023100     19.700504210500     -6.934744943410
     141   47  2  -0.48200    -13.726940139800     20.797251146316     -7.019057632580
     142   48  1   0.96400     -1.312497145050      8.628525663900     10.328496922900
     143   48  2  -0.48200     -0.941686859129      8.821121156830     10.686137396000
     144   48  2  -0.48200     -1.683307430960      8.435930170960      9.970856449870
     145   49  1   0.96400    -20.430525769800      7.685263315940     14.060283406100
     146   49  2  -0.48200    -20.007139871100      7.345081369240     14.147004937300
     147   49  2  -0.48200    -20.853911668416      8.025445262640     13.973561874900
     148   50  1   0.96400      0.447012814047    -10.077070624600     -7.407490680230
     149   50  2  -0.48200      0.040502444117     -9.712344896490     -7.342494815900
     150   50  2  -0.48200      0.853523183977    -10.441796352800     -7.472486544550
     151   51  1   0.96400     -2.293482949620      2.420212666730     -1.195211870730
     152   51  2  -0.48200     -1.840956520580      2.336075498770     -0.894145818194
     153   51  2  -0.48200     -2.746009378650      2.504349834690     -1.496277923280
     154   52  1   0.96400     -3.382991245120    -12.599046450400     -2.795217610690
     155   52  2  -0.48200     -3.012058998190    -12.749381721000     -3.172455698140
     156   52  2  -0.48200     -3.753923492050    -12.448711179900     -2.417979523250
     157   53  1   0.96400     17.828307808300    -10.582466295300    -18.799480412600
     158   53  2  -0.48200     17.742531109300    -10.056292180300    -18.934695643400
     159   53  2  -0.48200     17.914084507300    -11.108640410200    -18.664265181700
     160   54  1   0.96400     -9.724450041370     -2.205311293540     -3.469207989970
     161   54  2  -0.48200    -10.133230414400     -2.571603716530     -3.504257491040
     162   54  2  -0.48200     -9.315669668390     -1.839018870550     -3.434158488900
     163   55  1   0.96400     -9.131558098140      5.476639235760     -9.537889891640
     164   55  2  -0.48200     -8.765385275280      5.095605596100     -9.385473261150
     165   55  2  -0.48200     -9.497730921000      5.857672875410     -9.690306522130
     166   56  1   0.96400     16.653138417800    -16.473676277800      5.786468304990
     167   56  2  -0.48200     16.195023845600    -16.195293846400      5.663446922040
     168   56  2  -0.48200     17.111252990000    -16.752058709200      5.909489687950
     169   57  1   0.96400      2.932636520630     10.990396861900     -2.617486131370
     170   57  2  -0.48200      2.432655027470     11.208223108900     -2.688691697230
     171   57  2  -0.48200      3.432618013790     10.772570614900     -2.546280565500
     172   58  1   0.96400     -6.758345910170     11.679911601300     -1.773807150440
     173   58  2  -0.48200     -7.014910893010     11.538976224200     -1.308176793740
     174   58  2  -0.48200     -6.501780927340     11.820846978300     -2.239437507140
     175   59  1   0.96400    -10.036379308900      3.392211395240    -18.627178295700
     176   59  2  -0.48200    -10.574365433900      3.280835644050    -18.601364126500
     177   59  2  -0.48200     -9.498393183840      3.503587146430    -18.652992464800
     178   60  1   0.96400     17.305001109600     20.025313193700     19.932383353100
     179   60  2  -0.48200     17.121699304600     19.678657836000     20.318039302300
     180   60  2  -0.48200     17.488302914700     20.371968551500     19.546727403900
     181   61  1   0.96400      6.194897317410      0.135553075142      5.226586909090
     182   61  2  -0.48200      5.814619251710     -0.162578535045      4.963896719410
     183   61  2  -0.48200      6.575175383120      0.433684685330      5.489277098760
     184   62  1   0.96400      1.546888142380     15.021937351400     15.100660069100
     185   62  2  -0.48200      1.101304046740     15.008814357700     14.778506998700
     186   62  2  -0.48200      1.992472238030     15.035060345000     15.422813139400
     187   63  1   0.96400      7.294901981410     -2.203085912420     19.277783204800
     188   63  2  -0.48200      7.572279722880     -2.069433274930     18.822043628900
     189   63  2  -0.48200      7.017524239930     -2.336738549910     19.733522780700
     190   64  1   0.96400    -10.819094953300     -5.105580410140     -5.526809400480
     191   64  2  -0.48200    -10.600894002800     -5.295251572930     -5.994691004350
     192   64  2  -0.48200    -11.037295903700     -4.915909247360     -5.058927796620
     193   65  1   0.96400     10.017656704800    -13.652376861100    -15.923303409000
     194   65  2  -0.48200      9.973869279750    -13.289666164300    -15.512178596000
     195   65  2  -0.48200     10.061444129800    -14.015087557900    -16.334428222000
     196   66  1   0.96400     -7.128474163520      0.319119738460    -15.166186757500
     197   66  2  -0.48200     -7.315311802350     -0.156165886489    -14.961992557200
     198   66  2  -0.48200     -6.941636524690      0.794405363408    -15.370380957800
     199   67  1   0.96400     -2.477374237430    -15.124176885500     -8.253464969310
     200   67  2  -0.48200     -2.366015521030    -15.122314636800     -7.714859577300
     201   67  2  -0.48200     -2.588732953830    -15.126039134200     -8.792070361330
     202   68  1   0.96400     14.171341673400      1.803425144750     -1.406708453260
     203   68  2  -0.48200     13.647955113800      1.766993386570     -1.571751587560
     204   68  2  -0.48200     14.694728233100      1.839856902940     -1.241665318960
     205   69  1   0.96400     -6.294232430480    -14.021680084000    -13.479569124400
     206   69  2  -0.48200     -6.193435459100    -13.757468972800    -13.007835662300
     207   69  2  -0.48200     -6.395029401860    -14.285891195300    -13.951302586400
     208   70  1   0.96400     17.080401393600     -0.896432315530    -18.615936366100
     209   70  2  -0.48200     16.933703813900     -1.168659694020    -18.161104447100
     210   70  2  -0.48200     17.227098973200     -0.624204937036    -19.070768285100
     211   71  1   0.96400    -12.918804164600     16.711112984500     -9.044081563360
     212   71  2  -0.48200    -12.978351366200     17.231979256500     -9.210371844040
     213   71  2  -0.48200    -12.859256963000     16.190246712500     -8.877791282670
     214   72  1   0.96400     16.958002683300      9.433041349580     -2.281223888060
     215   72  2  -0.48200     16.733096147200      9.848785272490     -2.562424955980
     216   72  2  -0.48200     17.182909219300      9.017297426680     -2.000022820140
     217   73  1   0.96400     16.333432546600    -17.504372460800     19.327739724300
     218   73  2  -0.48200     16.827979713000    -17.547263999500     19.090920349900
     219   73  2  -0.48200     15.838885380200    -17.461480922100     19.564559098700
     220   74  1   0.96400     -7.999515382460    -16.064380411900    -16.979358200800
     221   74  2  -0.48200     -7.875466385330    -15.579117354400    -17.206584104500
     222   74  2  -0.48200     -8.123564379590    -16.549643469400    -16.752132297100
     223   75  1   0.96400    -16.415437934500    -17.207072805000     13.708556310100
     224   75  2  -0.48200    -16.352247589800    -17.434189805000     13.211640976600
     225   75  2  -0.48200    -16.478628279300    -16.979955805100     14.205471643600
     226   76  1   0.96400    -20.551027547100     -7.125139444610     14.032230725600
     227   76  2  -0.48200    -20.451269231600     -7.665698150560     14.050793158300
     228   76  2  -0.48200    -20.650785862600     -6.584580738660     14.013668292800
     229   77  1   0.96400     10.208977743900    -10.122234091900     12.623445423200
     230   77  2  -0.48200     10.725400686100     -9.941739521080     12.566620651600
     231   77  2  -0.48200      9.692554801680    -10.302728662800     12.680270194800
     232   78  1   0.96400      7.459042659260      7.716947113050     -8.665703400910
     233   78  2  -0.48200      7.113548893870      7.289237359540     -8.679789735740
     234   78  2  -0.48200      7.804536424650      8.144656866560     -8.651617066090
     235   79  1   0.96400     18.043532928900      3.397833483860    -19.804695072800
     236   79  2  -0.48200     17.589683593700      3.137102036960    -19.973632616300
     237   79  2  -0.48200     18.497382264000      3.658564930760    -19.635757529400
     238   80  1   0.96400     -7.757573032970     20.090945444700     12.142910270900
     239   80  2  -0.48200     -8.125115465820     20.265678124300     11.772935879000
     240   80  2  -0.48200     -7.390030600120     19.916212765000     12.512884662900
     241   81  1   0.96400     -1.348432441910     -7.194588472170     14.510740572900
     242   81  2  -0.48200     -1.343047370650     -6.645990275390     14.471868738600
     243   81  2  -0.48200     -1.353817513170     -7.743186668950     14.549612407100
     244   82  1   0.96400     -8.895856195920     -0.491201971123      8.795316670040
     245   82  2  -0.48200     -8.674888498600      0.001486987320      8.690765883490
     246   82  2  -0.48200     -9.116823893240     -0.983890929566      8.899867456600
     247   83  1   0.96400    -19.989289300800    -13.234991143700     16.651239360400
     248   83  2  -0.48200    -20.043221336100    -12.715691415000     16.824210824400
     249   83  2  -0.48200    -19.935357265500    -13.754290872400     16.478267896400
     250   84  1   0.96400      6.357972795100     10.316162701700     10.926667027700
     251   84  2  -0.48200      6.588624319050     10.300372371700     11.425716664500
     252   84  2  -0.48200      6.127321271140     10.331953031700     10.427617391000
     253   85  1   0.96400     12.714572926400      8.998443859300      3.491960485710
     254   85  2  -0.48200     12.778589536300      8.528804876630      3.770960664210
     255   85  2  -0.48200     12.650556316400      9.468082841970      3.212960307210
     256   86  1   0.96400     19.240548987700    -10.667084536600     15.727766746200
     257   86  2  -0.48200     19.278665350300    -11.203593658200     15.612853277500
     258   86  2  -0.48200     19.202432625100    -10.130575414900     15.842680214900
     259   87  1   0.96400    -12.734849771800     -8.850232812220     16.081681409900
     260   87  2  -0.48200    -13.015982306100     -9.079073334610     15.668043266800
     261   87  2  -0.48200    -12.453717237400     -8.621392289830     16.495319553000
     262   88  1   0.96400     12.122724142100    -10.363670229600    -12.319178210800
     263   88  2  -0.48200     12.481058363600    -10.107918613000    -12.648856381700
     264   88  2  -0.48200     11.764389920600    -10.619421846200    -11.989500040000
     265   89  1   0.96400    -17.294453215400    -12.875178070600    -20.033302605900
     266   89  2  -0.48200    -17.136284034500    -12.572539655200    -19.602150081000
     267   89  2  -0.48200    -17.452622396400    -13.177816486000    -20.464455130700
     268   90  1   0.96400    -20.350531909700     -1.640158430360     10.389452708100
     269   90  2  -0.48200    -20.377653135000     -2.111396535980     10.107142440900
     270   90  2  -0.48200    -20.323410684400     -1.168920324740     10.671762975200
     271   91  1   0.96400    -15.076112405100     20.649431196600      9.768316860350
     272   91  2  -0.48200    -14.536270944300     20.748468864516      9.803851878860
     273   91  2  -0.48200    -15.615953865900     20.550393528700      9.732781841830
     274   92  1   0.96400     14.184944233700    -10.441263144500     -7.310815771800
     275   92  2  -0.48200     14.694332299500    -10.393308549600     -7.109013504200
     276   92  2  -0.48200     13.675556167900    -10.489217739400     -7.512618039400
     277   93  1   0.96400     -2.523203922100      7.740967303720    -14.726252252600
     278   93  2  -0.48200     -2.897597475370      8.138862429070    -14.789568415500
     279   93  2  -0.48200     -2.148810368820      7.343072178360    -14.662936089700
     280   94  1   0.96400     -0.094362068674     12.103282099500    -13.896941905600
     281   94  2  -0.48200     -0.193224632709     11.990354116800    -14.426067093200
     282   94  2  -0.48200      0.004500495361     12.216210082200    -13.367816718000
     283   95  1   0.96400     12.893462074800      5.245607485680    -16.128651564300
     284   95  2  -0.48200     12.803506246500      5.786596292350    -16.086949525700
     285   95  2  -0.48200     12.983417903100      4.704618679010    -16.170353602800
     286   96  1   0.96400     -8.974424652680      8.092108295160     -5.528396168310
     287   96  2  -0.48200     -8.973306424190      8.106011564480     -6.078219275020
     288   96  2  -0.48200     -8.975542881160      8.078205025850     -4.978573061610
     289   97  1   0.96400     -1.267462290570      8.470652924780     -3.842906476140
     290   97  2  -0.48200     -1.120879302720      8.117394667750     -3.447657147850
     291   97  2  -0.48200     -1.414045278410      8.823911181810     -4.238155804430
     292   98  1   0.96400    -15.843049849900     20.615666822100     -0.503834347406
     293   98  2  -0.48200    -15.369148730200     20.496879447600     -0.251233301402
     294   98  2  -0.48200    -16.316950969500     20.734454196616     -0.756435393409
     295   99  1   0.96400     14.293787363400     15.942351339800     -8.131375396550
     296   99  2  -0.48200     14.653292976800     15.914283255900     -8.546667939890
     297   99  2  -0.48200     13.934281749900     15.970419423600     -7.716082853210
     298  100  1   0.96400    -18.820369319900     14.095310532300      0.327039353781
     299  100  2  -0.48200    -19.129600638000     13.754871104700      0.628663271934
     300  100  2  -0.48200    -18.511138001800     14.435749959900      0.025415435629
     301  101  1   0.96400     -9.616458366210    -11.344705741600    -13.548481566100
     302  101  2  -0.48200    -10.138378713800    -11.195457479300    -13.460027583600
     303  101  2  -0.48200     -9.094538018650    -11.493954003900    -13.636935548500
     304  102  1   0.96400     11.544607587300     16.780005770000     -1.678965403220
     305  102  2  -0.48200     11.880995945000     16.743079067700     -2.112531189970
     306  102  2  -0.48200     11.208219229600     16.816932472400     -1.245399616480
     307  103  1   0.96400    -16.530138542700      8.498452523850     -9.028135144230
     308  103  2  -0.48200    -16.814987162600      8.697471682660     -8.601810575150
     309  103  2  -0.48200    -16.245289922900      8.299433365040     -9.454459713300
     310  104  1   0.96400    -15.576897266500    -18.996560615400     17.630021740600
     311  104  2  -0.48200    -15.819205066000    -18.517190323700     17.748305525200
     312  104  2  -0.48200    -15.334589467100    -19.475930907200     17.511737956000
     313  105  1   0.96400    -20.348247439200     16.818593857900     -9.805732454150
     314  105  2  -0.48200    -20.450176988600     16.369459207600     -9.505085762950
     315  105  2  -0.48200    -20.246317889800     17.267728508100    -10.106379145300
     316  106  1   0.96400     12.488303357900    -13.286279805100    -19.550655667800
     317  106  2  -0.48200     12.152824542100    -13.114513641900    -19.150093126700
     318  106  2  -0.48200     12.823782173800    -13.458045968300    -19.951218208800
     319  107  1   0.96400     -4.609398309310    -16.132042150900      2.421356776270
     320  107  2  -0.48200     -4.700797594600    -15.607952725800      2.281798741270
     321  107  2  -0.48200     -4.517999024010    -16.656131576000      2.560914811270
     322  108  1   0.96400     16.727146083500     -1.087447072430      6.751474939960
     323  108  2  -0.48200     16.488488196500     -0.687559795607      6.458844492430
     324  108  2  -0.48200     16.965803970500     -1.487334349260      7.044105387500
     325  109  1   0.96400     -5.079746180050     10.848396975300    -12.840334176200
     326  109  2  -0.48200     -4.925260427570     11.354354150200    -12.990805068300
     327  109  2  -0.48200     -5.234231932520     10.342439800300    -12.689863284000
     328  110  1   0.96400      7.638906873140      3.429754048110     11.744582645300
     329  110  2  -0.48200      7.638584875070      3.635944114800     12.254470429800
     330  110  2  -0.48200      7.639228871210      3.223563981420     11.234694860900
     331  111  1   0.96400     -8.229430929840     18.135422817500    -10.831112429100
     332  111  2  -0.48200     -8.109745778810     18.660745188200    -10.941619765800
     333  111  2  -0.48200     -8.349116080870     17.610100446800    -10.720605092400
     334  112  1   0.96400    -20.283170784600     -5.918665575510     -2.573889551770
     335  112  2  -0.48200    -20.082673021700     -5.698983528890     -3.036534605210
     336  112  2  -0.48200    -20.483668547500     -6.138347622140     -2.111244498340
     337  113  1   0.96400      9.970093466330     -3.032397393890     12.837390883800
     338  113  2  -0.48200     10.351157618000     -2.637770236500     12.797900138400
     339  113  2  -0.48200      9.589029314680     -3.427024551290     12.876881629300
     340  114  1   0.96400    -13.390832559600    -16.325881556300     16.590118562500