LAMMPS Atom File

         3000 atoms
         2000 bonds
         1000 angles
           0 dihedrals
           0 impropers

           2 atom types
           1 bond types
           1 angle types

         0.0  39.3274213128 xlo xhi
         0.0  39.3274213128 ylo yhi
         0.0  39.3274213128 zlo zhi

Masses

         1    1.0e-20
         2   14.00670

Atoms

       1    1  1   0.96400     -6.742024211810     13.350867641400      3.629063040170
       2    1  2  -0.48200     -6.765145542350     13.015599902900      3.193677064740
       3    1  2  -0.48200     -6.718902881260     13.686135379900      4.064449015610
       4    2  1   0.96400      9.915464393260      2.897367553170     -1.989764570010
       5    2  2  -0.48200      9.569602886520      2.498298593480     -2.143464874390
       6    2  2  -0.48200     10.261325900000      3.296436512850     -1.836064265630
       7    3  1   0.96400     -8.150438513860    -17.314641466700     13.625921131800
       8    3  2  -0.48200     -7.660264112740    -17.091551230100     13.514297645100
       9    3  2  -0.48200     -8.640612914980    -17.537731703400     13.737544618500
      10    4  1   0.96400     14.781711300700    -16.054766757600      0.326732386512
      11    4  2  -0.48200     14.596146029200    -15.666101429400     -0.015327246746
      12    4  2  -0.48200     14.967276572100    -16.443432085700      0.668792019770
      13    5  1   0.96400     -8.036349200650    -17.862201892000     -3.593129081370
      14    5  2  -0.48200     -8.487106414980    -17.547059772300     -3.594967036200
      15    5  2  -0.48200     -7.585591986330    -18.177344011800     -3.591291126530
      16    6  1   0.96400     -8.227900756810     15.525186742600    -16.364866799600
      17    6  2  -0.48200     -8.748822167210     15.609562295800    -16.209877605800
      18    6  2  -0.48200     -7.706979346400     15.440811189500    -16.519855993500
      19    7  1   0.96400     17.292592469800      2.776151369110     -2.694921150660
      20    7  2  -0.48200     16.928225682100      2.906993099550     -2.304258526860
      21    7  2  -0.48200     17.656959257400      2.645309638670     -3.085583774460
      22    8  1   0.96400     17.757034285900     -6.180402346200      7.515523510890
      23    8  2  -0.48200     17.368575690400     -6.539066136090      7.667049764100
      24    8  2  -0.48200     18.145492881400     -5.821738556300      7.363997257690
      25    9  1   0.96400      5.050063945940     15.650356999400    -15.856175835700
      26    9  2  -0.48200      5.064678139100     16.195527824300    -15.927416252600
      27    9  2  -0.48200      5.035449752790     15.105186174500    -15.784935418800
      28   10  1   0.96400      7.937149288920     -6.782101864560     18.654128081300
      29   10  2  -0.48200      7.897792367950     -6.502342587330     19.126024022700
      30   10  2  -0.48200      7.976506209890     -7.061861141790     18.182232139800
      31   11  1   0.96400     -2.962239607100     -6.112338405210    -13.646768108300
      32   11  2  -0.48200     -3.169079440390     -5.669495892340    -13.394562255500
      33   11  2  -0.48200     -2.755399773810     -6.555180918080    -13.898973961000
      34   12  1   0.96400    -10.023691804200     -6.147351628100      2.220196922420
      35   12  2  -0.48200     -9.524710307530     -6.016130139300      2.029675566940
      36   12  2  -0.48200    -10.522673300800     -6.278573116900      2.410718277890
      37   13  1   0.96400     -9.886328990120    -14.871227637000     11.326307812000
      38   13  2  -0.48200     -9.633511965280    -14.878036398400     10.837905116700
      39   13  2  -0.48200    -10.139146015000    -14.864418875700     11.814710507200
      40   14  1   0.96400    -13.015914500300     -8.170529177620     12.362914940300
      41   14  2  -0.48200    -13.165357728000     -8.487347484470     12.786934848000
      42   14  2  -0.48200    -12.866471272700     -7.853710870770     11.938895032600
      43   15  1   0.96400     16.746170782500     15.922857570300     15.165252074200
      44   15  2  -0.48200     17.267808029700     15.937159448900     14.991499265200
      45   15  2  -0.48200     16.224533535300     15.908555691600     15.339004883200
      46   16  1   0.96400      9.204667957290     16.110544409600     16.510650661200
      47   16  2  -0.48200      9.587941989910     16.158562662200     16.119121271100
      48   16  2  -0.48200      8.821393924680     16.062526157000     16.902180051400
      49   17  1   0.96400     17.986803965900    -18.001995854900      0.776135795597
      50   17  2  -0.48200     17.586546244300    -17.627173644500      0.733685037798
      51   17  2  -0.48200     18.387061687600    -18.376818065300      0.818586553396
      52   18  1   0.96400     -8.298570904420     -0.894271834701      7.616105927700
      53   18  2  -0.48200     -8.350663685960     -1.201688897000      7.163026363030
      54   18  2  -0.48200     -8.246478122880     -0.586854772402      8.069185492370
      55   19  1   0.96400      1.004408283780     -3.926826798230     16.413517843700
      56   19  2  -0.48200      1.316962629980     -3.621422750910     16.079544568500
      57   19  2  -0.48200      0.691853937586     -4.232230845560     16.747491118900
      58   20  1   0.96400    -13.910901903300     -3.472085856260    -14.939488918800
      59   20  2  -0.48200    -14.246911526000     -3.158745758540    -14.637138928600
      60   20  2  -0.48200    -13.574892280500     -3.785425953990    -15.241838909000
      61   21  1   0.96400     17.184014477300    -15.152818851300      8.548235572730
      62   21  2  -0.48200     17.609144745900    -14.983110278700      8.853134334750
      63   21  2  -0.48200     16.758884208600    -15.322527423900      8.243336810700
      64   22  1   0.96400      0.988824055816     -6.682450152760     11.067562588500
      65   22  2  -0.48200      1.130912681700     -6.286621871320     10.713118243100
      66   22  2  -0.48200      0.846735429927     -7.078278434190     11.422006933900
      67   23  1   0.96400     -6.248307170090     -7.315687288200      2.399709755980
      68   23  2  -0.48200     -6.425472016590     -7.580215257770      2.848193390550
      69   23  2  -0.48200     -6.071142323590     -7.051159318630      1.951226121410
      70   24  1   0.96400      0.484200000031     -7.939118703400     17.888716708100
      71   24  2  -0.48200      0.043671626836     -8.262615605030     17.950235055400
      72   24  2  -0.48200      0.924728373226     -7.615621801770     17.827198360900
      73   25  1   0.96400    -17.254223391600     -1.365314464340    -14.537856598100
      74   25  2  -0.48200    -17.156890052600     -1.179352682680    -14.029482290300
      75   25  2  -0.48200    -17.351556730600     -1.551276246000    -15.046230906000
      76   26  1   0.96400    -16.834449700500     19.423700437500     -5.741772607260
      77   26  2  -0.48200    -16.753237425900     19.940669313960     -5.911029061050
      78   26  2  -0.48200    -16.915661975100     18.906731560900     -5.572516153470
      79   27  1   0.96400     -5.519425000590    -12.511481808400     15.718303947200
      80   27  2  -0.48200     -5.087855858500    -12.701305443400     16.001526586200
      81   27  2  -0.48200     -5.950994142690    -12.321658173500     15.435081308300
      82   28  1   0.96400     12.751116843300     -1.298524341960     11.290722643800
      83   28  2  -0.48200     13.121053046100     -0.911502021569     11.164782462100
      84   28  2  -0.48200     12.381180640500     -1.685546662350     11.416662825600
      85   29  1   0.96400     17.291107304900    -18.282024408100     -9.342549931010
      86   29  2  -0.48200     17.549805917600    -18.675149592500     -9.627203434630
      87   29  2  -0.48200     17.032408692200    -17.888899223600     -9.057896427380
      88   30  1   0.96400    -12.131519565400      1.216456363450      4.627602211550
      89   30  2  -0.48200    -11.929699092600      0.834025857836      4.967477784600
      90   30  2  -0.48200    -12.333340038100      1.598886869060      4.287726638510
      91   31  1   0.96400     15.826709477900     -4.809822733670    -13.548317419500
      92   31  2  -0.48200     16.077233683000     -4.721802839280    -14.029970947300
      93   31  2  -0.48200     15.576185272700     -4.897842628070    -13.066663891700
      94   32  1   0.96400     12.653454605900     19.232260801900      7.778834454920
      95   32  2  -0.48200     12.655082122000     19.705053387260      7.497828187340
      96   32  2  -0.48200     12.651827089800     18.759468216500      8.059840722510
      97   33  1   0.96400    -12.010998395800     -5.022869928400      7.067781439980
      98   33  2  -0.48200    -12.303469356800     -5.459612098420      6.905864751730
      99   33  2  -0.48200    -11.718527434900     -4.586127758380      7.229698128240
     100   34  1   0.96400     11.789839933100    -17.976319414100     19.168501792600
     101   34  2  -0.48200     11.645446224000    -18.483188359600     19.325773305500
     102   34  2  -0.48200     11.934233642200    -17.469450468500     19.011230279600
     103   35  1   0.96400      4.263193451740     -9.753696186990      8.909546937620
     104   35  2  -0.48200      4.561919120110     -9.754025057240      8.447743010710
     105   35  2  -0.48200      3.964467783380     -9.753367316750      9.371350864520
     106   36  1   0.96400     11.060210806500    -18.913083345700    -13.949512489600
     107   36  2  -0.48200     11.383493633100    -18.591321682700    -13.642172862700
     108   36  2  -0.48200     10.736927979900    -19.234845008700    -14.256852116500
     109   37  1   0.96400     -7.099260272600    -16.998852307700      5.811377018480
     110   37  2  -0.48200     -6.890045193620    -17.108720932300      5.314730327120
     111   37  2  -0.48200     -7.308475351590    -16.888983683000      6.308023709830
     112   38  1   0.96400     -3.413278381390    -10.248171126300     18.141357999700
     113   38  2  -0.48200     -3.543811135800    -10.180754743000     17.611342687400
     114   38  2  -0.48200     -3.282745626980    -10.315587509600     18.671373312000
     115   39  1   0.96400     15.178945566500    -12.917024382600    -14.078164532100
     116   39  2  -0.48200     15.670331092600    -13.154625757000    -14.010445616000
     117   39  2  -0.48200     14.687560040300    -12.679423008300    -14.145883448200
     118   40  1   0.96400     -2.601618030790     19.586212795800     15.161659494400
     119   40  2  -0.48200     -2.980233151490     19.953597490360     15.317155721400
     120   40  2  -0.48200     -2.223002910100     19.218828101300     15.006163267500
     121   41  1   0.96400      3.854930286730     -0.801781329678     -4.465897317750
     122   41  2  -0.48200      3.920729719040     -0.876176414957     -3.924939088310
     123   41  2  -0.48200      3.789130854420     -0.727386244398     -5.006855547180
     124   42  1   0.96400    -17.371094103700     -2.582115572020    -18.273382414800
     125   42  2  -0.48200    -17.220093413000     -2.446698972830    -17.762147502000
     126   42  2  -0.48200    -17.522094794400     -2.717532171200    -18.784617327600
     127   43  1   0.96400    -10.351201522100     17.355265965000     -1.743051902170
     128   43  2  -0.48200    -10.022776279500     16.937669493200     -1.600749243460
     129   43  2  -0.48200    -10.679626764800     17.772862436900     -1.885354560880
     130   44  1   0.96400     19.417511909200     11.148762620500      2.336168637500
     131   44  2  -0.48200     19.109001391500     11.290765027700      2.768784606680
     132   44  2  -0.48200     19.726022426960     11.006760213300      1.903552668320
     133   45  1   0.96400    -10.167745698000     -7.353236445460     17.962592495500
     134   45  2  -0.48200    -10.404396784000     -7.184588429520     17.495629852200
     135   45  2  -0.48200     -9.931094611960     -7.521884461390     18.429555138700
     136   46  1   0.96400     -1.311950393010     15.509239689100     -1.250907377320
     137   46  2  -0.48200     -1.232843986480     15.907567855500     -0.879993845287
     138   46  2  -0.48200     -1.391056799550     15.110911522600     -1.621820909350
     139   47  1   0.96400     11.774473816300     11.000728478900      4.971851998700
     140   47  2  -0.48200     11.374425495600     10.686330369500      4.763009546430
     141   47  2  -0.48200     12.174522137100     11.315126588300      5.180694450960
     142   48  1   0.96400     -3.732606347600     -6.385836954710     -7.849990757920
     143   48  2  -0.48200     -3.335242259830     -6.005688837460     -7.859434840650
     144   48  2  -0.48200     -4.129970435380     -6.765985071960     -7.840546675180
     145   49  1   0.96400     -1.848271534350     -1.692307264330    -16.239246912600
     146   49  2  -0.48200     -1.671279823220     -1.551915214630    -16.740708782100
     147   49  2  -0.48200     -2.025263245490     -1.832699314040    -15.737785043100
     148   50  1   0.96400    -13.173618883500     17.794881101700     -5.621503628850
     149   50  2  -0.48200    -12.928791778500     18.152800129700     -5.959813631700
     150   50  2  -0.48200    -13.418445988500     17.436962073700     -5.283193626000
     151   51  1   0.96400     -3.066945196510      5.253767382580     10.791085228000
     152   51  2  -0.48200     -2.538966764050      5.405216305990     10.819404805200
     153   51  2  -0.48200     -3.594923628970      5.102318459170     10.762765650700
     154   52  1   0.96400     16.059418241200      6.642297720150     15.737708385700
     155   52  2  -0.48200     15.670065361900      6.380062080470     16.024303578700
     156   52  2  -0.48200     16.448771120500      6.904533359830     15.451113192600
     157   53  1   0.96400      1.363982970600    -10.921482792700     -6.880317088300
     158   53  2  -0.48200      0.820054939436    -10.873880727700     -6.814163174440
     159   53  2  -0.48200      1.907911001770    -10.969084857700     -6.946471002160
     160   54  1   0.96400     -1.356615846500      1.293453199540     -2.008172545430
     161   54  2  -0.48200     -0.864568670455      1.054690263160     -1.950018983510
     162   54  2  -0.48200     -1.848663022540      1.532216135910     -2.066326107340
     163   55  1   0.96400     -2.717863430290    -12.671762107600     -4.516464810460
     164   55  2  -0.48200     -2.646516683430    -13.197921702800     -4.373057271830
     165   55  2  -0.48200     -2.789210177150    -12.145602512500     -4.659872349080
     166   56  1   0.96400     18.465340271200    -10.476867882700    -14.603106281500
     167   56  2  -0.48200     18.391229244400    -10.995362041900    -14.770949549400
     168   56  2  -0.48200     18.539451298100     -9.958373723510    -14.435263013600
     169   57  1   0.96400     -6.266427722770     -3.092025611090     -7.566501320730
     170   57  2  -0.48200     -5.950029076710     -3.093644877070     -8.016378275850
     171   57  2  -0.48200     -6.582826368840     -3.090406345110     -7.116624365610
     172   58  1   0.96400    -12.735547794000      3.128356328500     -5.395019615120
     173   58  2  -0.48200    -13.014157983900      2.662443111660     -5.306695006630
     174   58  2  -0.48200    -12.456937604200      3.594269545340     -5.483344223600
     175   59  1   0.96400     -4.674932198400      9.635654914080      4.152397962270
     176   59  2  -0.48200     -4.373616971680     10.076484991000      4.284223519110
     177   59  2  -0.48200     -4.976247425110      9.194824837170      4.020572405430
     178   60  1   0.96400    -19.570460258700     -9.607590039790      7.636661180510
     179   60  2  -0.48200    -20.080366457360     -9.769062960270      7.508512186930
     180   60  2  -0.48200    -19.060554060100     -9.446117119310      7.764810174090
     181   61  1   0.96400     -0.371903053731      4.954269193510     -3.186214780980
     182   61  2  -0.48200     -0.812002682948      4.770309211700     -3.460023183800
     183   61  2  -0.48200      0.068196575486      5.138229175320     -2.912406378160
     184   62  1   0.96400     -8.377723696430     14.612420506600     -0.731385249371
     185   62  2  -0.48200     -7.940817047390     14.819261917100     -0.469032031540
     186   62  2  -0.48200     -8.814630345460     14.405579096000     -0.993738467203
     187   63  1   0.96400     -9.726981178620      3.058031635830    -18.122208051200
     188   63  2  -0.48200     -9.609917900680      3.209586440770    -17.606623596400
     189   63  2  -0.48200     -9.844044456570      2.906476830900    -18.637792506000
     190   64  1   0.96400     17.018465498900     19.318642118100     15.834152873700
     191   64  2  -0.48200     17.102481770500     19.573806565200     16.314082421700
     192   64  2  -0.48200     16.934449227200     19.063477671100     15.354223325600
     193   65  1   0.96400      4.969820958820      1.325500187290      2.408206064560
     194   65  2  -0.48200      4.715446849760      1.196251779660      2.878406725730
     195   65  2  -0.48200      5.224195067880      1.454748594930      1.938005403390
     196   66  1   0.96400     -3.101310164060     14.450752198800     14.324801137400
     197   66  2  -0.48200     -2.984433726090     14.543375684600     14.854197763800
     198   66  2  -0.48200     -3.218186602040     14.358128713000     13.795404510900
     199   67  1   0.96400      1.120933317150     -8.120263448200     -4.406073793120
     200   67  2  -0.48200      1.345925587450     -8.567272604730     -4.177904355450
     201   67  2  -0.48200      0.895941046848     -7.673254291670     -4.634243230780
     202   68  1   0.96400    -12.122703657400     -0.448824829667     -6.178148206960
     203   68  2  -0.48200    -11.867555452800      0.024093728227     -6.295397647430
     204   68  2  -0.48200    -12.377851862000     -0.921743387562     -6.060898766490
     205   69  1   0.96400      9.274268527660    -15.097114725100     19.524254388500
     206   69  2  -0.48200      9.005155708970    -15.132764608600     19.045916248100
     207   69  2  -0.48200      9.543381346360    -15.061464841700     20.002592528960
     208   70  1   0.96400     -7.673721971360      4.694329193550    -10.218442604800
     209   70  2  -0.48200     -7.780652516130      4.624355546210    -10.753390777300
     210   70  2  -0.48200     -7.566791426590      4.764302840900     -9.683494432300
     211   71  1   0.96400     -2.127882219390    -15.821492335400     -7.371399427860
     212   71  2  -0.48200     -2.433637917020    -15.378126410900     -7.482934670670
     213   71  2  -0.48200     -1.822126521760    -16.264858259900     -7.259864185040
     214   72  1   0.96400     12.296575988700      1.661890999600     -6.113135780340
     215   72  2  -0.48200     12.097129684900      2.151451490330     -5.961307924420
     216   72  2  -0.48200     12.496022292400      1.172330508860     -6.264963636260
     217   73  1   0.96400     -6.033635632960    -14.224429382200    -11.723946878000
     218   73  2  -0.48200     -6.389979970730    -14.085936117300    -11.328550458500
     219   73  2  -0.48200     -5.677291295200    -14.362922647200    -12.119343297400
     220   74  1   0.96400     18.284875928700     -1.698975909110    -17.427710738700
     221   74  2  -0.48200     18.180537124100     -1.202568170380    -17.640296652600
     222   74  2  -0.48200     18.389214733300     -2.195383647830    -17.215124824800
     223   75  1   0.96400    -17.310097626000     11.113840454100     -8.905018294370
     224   75  2  -0.48200    -17.809277945900     11.312348205200     -9.022974561350
     225   75  2  -0.48200    -16.810917306100     10.915332702900     -8.787062027390
     226   76  1   0.96400     17.066996646000      7.948442370020      1.986702048130
     227   76  2  -0.48200     16.576356611200      7.699947251850      1.981955205070
     228   76  2  -0.48200     17.557636680800      8.196937488190      1.991448891200
     229   77  1   0.96400     15.110395347700    -15.486210575400     16.388535096700
     230   77  2  -0.48200     15.174269900200    -14.962422534200     16.543667715600
     231   77  2  -0.48200     15.046520795200    -16.009998616600     16.233402477900
     232   78  1   0.96400    -10.897956532500    -14.787051099800    -16.531649167700
     233   78  2  -0.48200    -11.388447087900    -15.035633263800    -16.520427635100
     234   78  2  -0.48200    -10.407465977100    -14.538468935800    -16.542870700200
     235   79  1   0.96400    -19.349721143000     -5.945295389630     13.144860670800
     236   79  2  -0.48200    -19.530564810400     -6.098452444300     13.641185649600
     237   79  2  -0.48200    -19.168877475600     -5.792138334960     12.648535692100
     238   80  1   0.96400     11.228238913100    -14.130095919200     14.840319251100
     239   80  2  -0.48200     11.234314675300    -14.492276232100     15.254189407200
     240   80  2  -0.48200     11.222163151000    -13.767915606400     14.426449095000
     241   81  1   0.96400      9.055200662140     -6.498114703200    -13.018094370500
     242   81  2  -0.48200      8.825167881080     -6.920188709690    -13.285374097900
     243   81  2  -0.48200      9.285233443200     -6.076040696710    -12.750814643100
     244   82  1   0.96400      4.009954294650     11.062771297500     -7.550190190880
     245   82  2  -0.48200      3.683561150170     11.250002572800     -7.951328527090
     246   82  2  -0.48200      4.336347439120     10.875540022100     -7.149051854680
     247   83  1   0.96400     -3.927373406180    -18.420999470600     11.802747299600
     248   83  2  -0.48200     -4.168831952040    -18.912604688800     11.852967615000
     249   83  2  -0.48200     -3.685914860320    -17.929394252400     11.752526984100
     250   84  1   0.96400      0.790229658703     -9.198772965350     13.767404180500
     251   84  2  -0.48200      1.310211415630     -9.224171120650     13.589995313200
     252   84  2  -0.48200      0.270247901776     -9.173374810040     13.944813047700
     253   85  1   0.96400     -3.898076167330    -15.307299697700      2.205098017170
     254   85  2  -0.48200     -4.387736519720    -15.358403728000      2.450294096630
     255   85  2  -0.48200     -3.408415814940    -15.256195667400      1.959901937700
     256   86  1   0.96400    -16.640184756700     -9.417573919700     18.120463679200
     257   86  2  -0.48200    -16.613562403200     -9.899654599470     18.383882487300
     258   86  2  -0.48200    -16.666807110200     -8.935493239930     17.857044871000
     259   87  1   0.96400      4.234991241930      8.250734325030     10.039086550000
     260   87  2  -0.48200      4.585041041610      8.373814878030      9.633110793030
     261   87  2  -0.48200      3.884941442260      8.127653772020     10.445062306900
     262   88  1   0.96400     13.371659357800      5.094442715880      3.662438295250
     263   88  2  -0.48200     13.847480512400      5.356849853800      3.577369365970
     264   88  2  -0.48200     12.895838203100      4.832035577950      3.747507224520
     265   89  1   0.96400    -11.862074038600     -5.757728686920     -4.947991211800
     266   89  2  -0.48200    -12.324515843700     -6.012536909200     -4.793977099510
     267   89  2  -0.48200    -11.399632233500     -5.502920464640     -5.102005324090
     268   90  1   0.96400     16.092335636700     -6.729863104250     11.934335196600
     269   90  2  -0.48200     15.875546453000     -7.025480341620     12.344350926500
     270   90  2  -0.48200     16.309124820400     -6.434245866880     11.524319466600
     271   91  1   0.96400    -12.220672052000    -11.541322064100     13.190317788700
     272   91  2  -0.48200    -12.498016007300    -11.826689741400     12.810652647800
     273   91  2  -0.48200    -11.943328096700    -11.255954386800     13.569982929600
     274   92  1   0.96400      9.584362881420    -11.885785475800     -7.927323947580
     275   92  2  -0.48200      9.819712996060    -12.066779051600     -8.390305209690
     276   92  2  -0.48200      9.349012766770    -11.704791900000     -7.464342685470
     277   93  1   0.96400    -17.272110822700     -5.336113866340      9.231588599900
     278   93  2  -0.48200    -16.798419056800     -5.578234076880      9.091967990460
     279   93  2  -0.48200    -17.745802588600     -5.093993655790      9.371209209350
     280   94  1   0.96400    -12.818130892100     17.374888151900     10.985209161500
     281   94  2  -0.48200    -12.555672109700     17.431645518800     11.465202899800
     282   94  2  -0.48200    -13.080589674500     17.318130785000     10.505215423200
     283   95  1   0.96400     13.445360421800    -11.964338705400     -2.338778937820
     284   95  2  -0.48200     13.138832512700    -11.792554492200     -2.761899281280
     285   95  2  -0.48200     13.751888330800    -12.136122918600     -1.915658594360
     286   96  1   0.96400     -4.343164733740      3.883367450410    -10.694545053900
     287   96  2  -0.48200     -4.134117072880      3.516026398380    -11.046482018400
     288   96  2  -0.48200     -4.552212394600      4.250708502430    -10.342608089400
     289   97  1   0.96400     -1.895148388970      5.346149946110    -13.795529893700
     290   97  2  -0.48200     -1.983217955900      5.822369652380    -14.056218487200
     291   97  2  -0.48200     -1.807078822030      4.869930239840    -13.534841300300
     292   98  1   0.96400     13.745178952400     12.499352288100    -15.461031042100
     293   98  2  -0.48200     14.094013342500     12.276669298900    -15.823283515600
     294   98  2  -0.48200     13.396344562300     12.722035277400    -15.098778568500
     295   99  1   0.96400    -15.921308703100      0.357141205488    -19.180311504300
     296   99  2  -0.48200    -16.014984338200      0.352030012687    -19.722251308260
     297   99  2  -0.48200    -15.827633068100      0.362252398289    -18.638371700400
     298  100  1   0.96400     -8.843290453960      4.811131070540     -5.427429656140
     299  100  2  -0.48200     -9.045547275080      4.303570073910     -5.490469429430
     300  100  2  -0.48200     -8.641033632850      5.318692067170     -5.364389882840
     301  101  1   0.96400     -3.306861582290     10.588598985100     -2.371051819280
     302  101  2  -0.48200     -3.564673296400     10.788652802600     -1.928319857300
     303  101  2  -0.48200     -3.049049868170     10.388545167600     -2.813783781260
     304  102  1   0.96400     11.734352093100     14.739652001700     -6.492251222490
     305  102  2  -0.48200     11.756798021900     14.275961084200     -6.787186661680
     306  102  2  -0.48200     11.711906164300     15.203342919200     -6.197315783290
     307  103  1   0.96400    -15.929379907000      9.501183868750     -0.005466895795
     308  103  2  -0.48200    -15.954811999100      9.625023249750      0.529805947161
     309  103  2  -0.48200    -15.903947814900      9.377344487750     -0.540739738750
     310  104  1   0.96400     -7.985286718080     -9.819053707550     -8.763987105020
     311  104  2  -0.48200     -7.619372344460    -10.148776783100     -8.519264068430
     312  104  2  -0.48200     -8.351201091700     -9.489330632010     -9.008710141600
     313  105  1   0.96400      7.941147267680     18.208134337400      2.881741739100
     314  105  2  -0.48200      8.207278194890     18.121784298000      2.408225107650
     315  105  2  -0.48200      7.675016340470     18.294484376900      3.355258370550
     316  106  1   0.96400    -15.007823985300     16.813525084000     13.408015960100
     317  106  2  -0.48200    -15.389822313000     16.521096763000     13.141439601900
     318  106  2  -0.48200    -14.625825657700     17.105953405100     13.674592318200
     319  107  1   0.96400    -15.745546984500      7.260785848710     -8.494406741870
     320  107  2  -0.48200    -15.476162157400      6.999073315930     -8.896200675530
     321  107  2  -0.48200    -16.014931811600      7.522498381500     -8.092612808220
     322  108  1   0.96400    -10.923979393900      0.961533949870     16.092954157900
     323  108  2  -0.48200    -10.549071769700      1.363553581410     16.074940574500
     324  108  2  -0.48200    -11.298887018100      0.559514318332     16.110967741400
     325  109  1   0.96400    -16.183487625000    -17.853919558400     17.187550044500
     326  109  2  -0.48200    -16.304834889900    -17.613742692200     16.707873159300
     327  109  2  -0.48200    -16.062140360100    -18.094096424700     17.667226929700
     328  110  1   0.96400     14.255865138400    -13.143654368600     -8.276813610020
     329  110  2  -0.48200     14.613816185000    -13.398966340700     -8.607247937990
     330  110  2  -0.48200     13.897914091700    -12.888342396600     -7.946379282050
     331  111  1   0.96400     19.154167364400     13.264207934500     -7.284726996950
     332  111  2  -0.48200     19.169318188200     12.799638195300     -7.578742999820
     333  111  2  -0.48200     19.139016540700     13.728777673700     -6.990710994070
     334  112  1   0.96400     11.320033343000    -11.126870904000     15.640326923300
     335  112  2  -0.48200     11.835796857800    -11.217197972300     15.808639185300
     336  112  2  -0.48200     10.804269828200    -11.036543835700     15.472014661300
     337  113  1   0.96400      0.341702016747    -12.908903644000     -2.783460718990
     338  113  2  -0.48200      0.069947178233    -12.776657406800     -2.323938967080
     339  113  2  -0.48200      0.613456855261    -13.041149881300     -3.242982470900
     340  114  1   0.96400     17.827933581100     -2.141072535010      4.676013172860