LAMMPS Atom File

         3000 atoms
         2000 bonds
         1000 angles
           0 dihedrals
           0 impropers

           2 atom types
           1 bond types
           1 angle types

         0.0  93.9881326695 xlo xhi
         0.0  93.9881326695 ylo yhi
         0.0  93.9881326695 zlo zhi

Masses

         1    1.0e-20
         2   14.00670

Atoms

       1    1  1   0.96400    -24.855102140700     38.584829959400      9.995600707950
       2    1  2  -0.48200    -25.144713410000     38.864946886700      9.621221461990
       3    1  2  -0.48200    -24.565490871500     38.304713032100     10.369979953900
       4    2  1   0.96400     23.850389732500     -0.675940554526      4.747977567580
       5    2  2  -0.48200     24.234176163800     -1.042153460750      4.602732662410
       6    2  2  -0.48200     23.466603301200     -0.309727648306      4.893222472760
       7    3  1   0.96400    -28.799482508800     46.934825531200     39.978379486500
       8    3  2  -0.48200    -28.570905514500     47.412224258385     40.127855280200
       9    3  2  -0.48200    -29.028059503100     46.457426803900     39.828903692800
      10    4  1   0.96400     24.988223994000    -40.269480825900    -10.827470411000
      11    4  2  -0.48200     25.444823524700    -40.069022816600    -11.059490787400
      12    4  2  -0.48200     24.531624463300    -40.469938835300    -10.595450034500
      13    5  1   0.96400    -15.916749713200    -45.319498166200      6.091949671210
      14    5  2  -0.48200    -15.833314331100    -45.011309507700      5.644112325990
      15    5  2  -0.48200    -16.000185095300    -45.627686824700      6.539787016430
      16    6  1   0.96400    -16.373215361700     42.219591956500    -45.743747317100
      17    6  2  -0.48200    -16.676381508700     42.395806062700    -45.320027036600
      18    6  2  -0.48200    -16.070049214700     42.043377850400    -46.167467597600
      19    7  1   0.96400     36.099157910100     10.785678884000     -3.288321355390
      20    7  2  -0.48200     36.618141077000     10.660164448800     -3.420240266360
      21    7  2  -0.48200     35.580174743300     10.911193319300     -3.156402444420
      22    8  1   0.96400     38.963473293600    -11.749648553800     15.543298321500
      23    8  2  -0.48200     39.356760096500    -11.575928573500     15.200301442300
      24    8  2  -0.48200     38.570186490800    -11.923368534100     15.886295200700
      25    9  1   0.96400     16.352059176600     27.022262182800    -41.325324579100
      26    9  2  -0.48200     16.066728761400     27.298201989200    -41.706039403400
      27    9  2  -0.48200     16.637389591800     26.746322376400    -40.944609754800
      28   10  1   0.96400     29.108699939400     -8.240679246370     42.302480214300
      29   10  2  -0.48200     28.585544275400     -8.294315973790     42.463512051800
      30   10  2  -0.48200     29.631855603400     -8.187042518940     42.141448376900
      31   11  1   0.96400     -2.334419812830    -13.292271149700    -34.840234100400
      32   11  2  -0.48200     -2.134796677180    -13.703735405600    -35.145762773100
      33   11  2  -0.48200     -2.534042948470    -12.880806893800    -34.534705427800
      34   12  1   0.96400    -21.527824617800    -11.444898402400     16.228953846700
      35   12  2  -0.48200    -20.988643727900    -11.553352592200     16.224300169900
      36   12  2  -0.48200    -22.067005507600    -11.336444212600     16.233607523500
      37   13  1   0.96400    -25.778209821500    -34.177909410800     32.392597315100
      38   13  2  -0.48200    -25.601635409500    -34.281281095300     32.903122311400
      39   13  2  -0.48200    -25.954784233500    -34.074537726300     31.882072318800
      40   14  1   0.96400    -30.712920026700    -16.889937015600     31.125537818600
      41   14  2  -0.48200    -30.862363254400    -17.206755322400     31.549557726300
      42   14  2  -0.48200    -30.563476799100    -16.573118708700     30.701517910900
      43   15  1   0.96400     36.417987015800     39.173601111700    -45.348178724600
      44   15  2  -0.48200     36.388442490600     39.096262679700    -45.891912012200
      45   15  2  -0.48200     36.447531541000     39.250939543600    -44.804445437100
      46   16  1   0.96400     20.253271057800     34.366135702900     37.603403145800
      47   16  2  -0.48200     20.582490920200     34.195396930000     38.009558970200
      48   16  2  -0.48200     19.924051195500     34.536874475700     37.197247321400
      49   17  1   0.96400    -44.265473607300     43.855329008100      7.889203795530
      50   17  2  -0.48200    -43.740246913200     44.009203831600      7.943604701200
      51   17  2  -0.48200    -44.790700301300     43.701454184600      7.834802889850
      52   18  1   0.96400    -18.663586339800    -12.179490837500     26.124068228300
      53   18  2  -0.48200    -18.150973797400    -12.315139929400     26.270108309300
      54   18  2  -0.48200    -19.176198882200    -12.043841745600     25.978028147300
      55   19  1   0.96400     -5.113011955740     -5.211830709230     28.297139425000
      56   19  2  -0.48200     -4.623851057830     -5.010015010410     28.147165961800
      57   19  2  -0.48200     -5.602172853640     -5.413646408040     28.447112888300
      58   20  1   0.96400    -32.373189035200     -8.617236501730    -36.319779321200
      59   20  2  -0.48200    -31.856680943400     -8.786131230670    -36.404596545900
      60   20  2  -0.48200    -32.889697127000     -8.448341772790    -36.234962096500
      61   21  1   0.96400     39.770809292100    -38.949959468000     19.454578477400
      62   21  2  -0.48200     39.250411637700    -38.842306737800     19.312813986100
      63   21  2  -0.48200     40.291206946500    -39.057612198200     19.596342968700
      64   22  1   0.96400     11.733237097200    -19.604192946000     36.309221539800
      65   22  2  -0.48200     11.608667183000    -19.096387745200     36.479856279800
      66   22  2  -0.48200     11.857807011300    -20.111998146800     36.138586799700
      67   23  1   0.96400    -18.627956029300    -22.712203801800      5.903603908960
      68   23  2  -0.48200    -18.344366660300    -22.981031940600      6.290654941320
      69   23  2  -0.48200    -18.911545398200    -22.443375663100      5.516552876600
      70   24  1   0.96400     -4.675494864770     -9.840386361210     42.573627432700
      71   24  2  -0.48200     -4.805077474560     -9.817233568200     42.039612175000
      72   24  2  -0.48200     -4.545912254980     -9.863539154220     43.107642690300
      73   25  1   0.96400    -35.143544360500      7.369035451090    -31.672831945900
      74   25  2  -0.48200    -35.125729231800      7.672473015500    -31.214456264100
      75   25  2  -0.48200    -35.161359489300      7.065597886670    -32.131207627800
      76   26  1   0.96400     46.908207093100     41.540177854300      0.405117795187
      77   26  2  -0.48200     46.923201668400     41.075094700600      0.111906569503
      78   26  2  -0.48200     46.893212517800     42.005261008000      0.698329020871
      79   27  1   0.96400    -18.986405173600     42.650054643500     -5.382650033290
      80   27  2  -0.48200    -18.605638309500     42.616119923600     -4.987219849830
      81   27  2  -0.48200    -19.367172037700     42.683989363300     -5.778080216760
      82   28  1   0.96400    -11.011414051000    -23.544682963100     24.861250571900
      83   28  2  -0.48200    -11.075847533500    -23.828820378200     24.394759140400
      84   28  2  -0.48200    -10.946980568600    -23.260545548000     25.327742003400
      85   29  1   0.96400     23.606677279900     -7.104253394430     24.472836914200
      86   29  2  -0.48200     23.992887023700     -7.437795490870     24.677999541500
      87   29  2  -0.48200     23.220467536100     -6.770711298000     24.267674286800
      88   30  1   0.96400     41.134996193600    -33.849464592300    -23.444133208300
      89   30  2  -0.48200     41.174056459700    -34.096735721400    -22.954407484800
      90   30  2  -0.48200     41.095935927400    -33.602193463100    -23.933858931800
      91   31  1   0.96400    -30.211547213900      5.165962356410     14.188499291200
      92   31  2  -0.48200    -29.906878909600      4.893821441850     14.556760811100
      93   31  2  -0.48200    -30.516215518200      5.438103270960     13.820237771400
      94   32  1   0.96400     37.745682091700    -18.888252551100    -36.780900804000
      95   32  2  -0.48200     38.269822777100    -18.729836846000    -36.832679238500
      96   32  2  -0.48200     37.221541406300    -19.046668256300    -36.729122369500
      97   33  1   0.96400     46.988800454000     17.275158197500    -38.074238772000
      98   33  2  -0.48200     47.054318696185     17.684076962400    -37.712309492200
      99   33  2  -0.48200     46.923282211800     16.866239432600    -38.436168051900
     100   34  1   0.96400     30.175334851700     44.971353157800     19.074255846900
     101   34  2  -0.48200     30.195764556600     44.540789260000     18.732645898100
     102   34  2  -0.48200     30.154905146800     45.401917055600     19.415865795600
     103   35  1   0.96400    -31.074233997300    -10.049325679900     15.031971933000
     104   35  2  -0.48200    -30.759089674600     -9.599290693010     15.057517312000
     105   35  2  -0.48200    -31.389378320000    -10.499360666900     15.006426554000
     106   36  1   0.96400     23.929421471200     34.616680783200     41.186982566200
     107   36  2  -0.48200     23.986648540100     34.529913720300     41.727071947100
     108   36  2  -0.48200     23.872194402300     34.703447846000     40.646893185300
     109   37  1   0.96400     16.422481741600    -18.736747392200     23.635786997400
     110   37  2  -0.48200     16.575169039400    -18.911508701800     24.134430230400
     111   37  2  -0.48200     16.269794443900    -18.561986082600     23.137143764500
     112   38  1   0.96400     31.394500864400    -41.731459827400    -39.917240414700
     113   38  2  -0.48200     30.971554061700    -41.938502874300    -39.633076414900
     114   38  2  -0.48200     31.817447667200    -41.524416780500    -40.201404414500
     115   39  1   0.96400    -21.537054159800    -36.294106853400      9.892029704430
     116   39  2  -0.48200    -21.045668633600    -36.531708227700      9.959748620550
     117   39  2  -0.48200    -22.028439685900    -36.056505479000      9.824310788320
     118   40  1   0.96400    -15.592210921500    -15.709136090600     41.428662393600
     119   40  2  -0.48200    -15.863661994500    -15.402502411100     41.795800108300
     120   40  2  -0.48200    -15.320759848600    -16.015769770100     41.061524678800
     121   41  1   0.96400     39.799532159400    -27.719492292200    -33.427164450000
     122   41  2  -0.48200     40.155842404600    -27.773148662000    -33.842693032800
     123   41  2  -0.48200     39.443221914300    -27.665835922400    -33.011635867100
     124   42  1   0.96400      3.103574258760     36.087177724800     41.735598756900
     125   42  2  -0.48200      2.888331996450     36.563800970000     41.905895705200
     126   42  2  -0.48200      3.318816521070     35.610554479500     41.565301808700
     127   43  1   0.96400      9.005113294110     10.642918627600    -11.042743203500
     128   43  2  -0.48200      9.441384862230     10.952723139800    -10.915510019600
     129   43  2  -0.48200      8.568841725980     10.333114115400    -11.169976387300
     130   44  1   0.96400    -46.294107137100    -10.080795018300    -46.086226770900
     131   44  2  -0.48200    -46.182533500000    -10.028376654800    -45.550219645300
     132   44  2  -0.48200    -46.405680774100    -10.133213381800    -46.622233896500
     133   45  1   0.96400    -28.208913884900     34.687888249000     -6.733933324270
     134   45  2  -0.48200    -28.404101702000     34.228562469700     -6.502802312600
     135   45  2  -0.48200    -28.013726067800     35.147214028200     -6.965064335940
     136   46  1   0.96400     38.776216739600     29.715960482100     10.039714748400
     137   46  2  -0.48200     39.080556186500     29.428297896600     10.396264517600
     138   46  2  -0.48200     38.471877292600     30.003623067700      9.683164979140
     139   47  1   0.96400    -30.921622673300    -19.865063594500    -42.005136753800
     140   47  2  -0.48200    -31.361380697800    -20.185949582800    -41.926746304900
     141   47  2  -0.48200    -30.481864648900    -19.544177606300    -42.083527202700
     142   48  1   0.96400     -8.216112485620     38.462935811600    -13.486690536200
     143   48  2  -0.48200     -8.745206378990     38.598513289400    -13.422049995500
     144   48  2  -0.48200     -7.687018592250     38.327358333700    -13.551331077000
     145   49  1   0.96400     29.159915902100     26.592577909900      5.836272993210
     146   49  2  -0.48200     29.691906058800     26.718456655200      5.896613814320
     147   49  2  -0.48200     28.627925745400     26.466699164600      5.775932172100
     148   50  1   0.96400    -14.154805118500    -13.716557717500    -21.455122995600
     149   50  2  -0.48200    -13.809815758000    -13.288255767400    -21.461430188000
     150   50  2  -0.48200    -14.499794479100    -14.144859667600    -21.448815803200
     151   51  1   0.96400      0.507372902583     -2.852912595790    -35.011095206400
     152   51  2  -0.48200      0.736741750949     -3.084871839020    -35.453909886500
     153   51  2  -0.48200      0.278004054216     -2.620953352560    -34.568280526400
     154   52  1   0.96400    -34.912725464200     46.905856417100    -18.158048532400
     155   52  2  -0.48200    -34.509460068100     47.217908170985    -17.951891497000
     156   52  2  -0.48200    -35.315990860200     46.593804663200    -18.364205567700
     157   53  1   0.96400      1.965674453190     16.104048606900     26.503463371300
     158   53  2  -0.48200      1.624273783080     16.104314379400     26.072249373600
     159   53  2  -0.48200      2.307075123300     16.103782834400     26.934677369000
     160   54  1   0.96400     42.788042497000      6.842921374220     40.482088747900
     161   54  2  -0.48200     42.962075907400      6.356567503560     40.670959827100
     162   54  2  -0.48200     42.614009086600      7.329275244880     40.293217668700
     163   55  1   0.96400      2.312345100270    -24.660136664500    -14.431180748500
     164   55  2  -0.48200      1.881738438350    -24.666446417100    -14.089072447300
     165   55  2  -0.48200      2.742951762190    -24.653826911900    -14.773289049600
     166   56  1   0.96400     -9.218901223020      8.180491005990     -3.834053925470
     167   56  2  -0.48200     -8.876616632100      7.749995437050     -3.830203738370
     168   56  2  -0.48200     -9.561185813940      8.610986574930     -3.837904112570
     169   57  1   0.96400     -7.218124293120    -27.739949076600    -11.230799995700
     170   57  2  -0.48200     -6.998513829830    -27.237002373200    -11.267074751500
     171   57  2  -0.48200     -7.437734756410    -28.242895780100    -11.194525240000
     172   58  1   0.96400     42.460709542800    -22.809429611300    -33.987789868500
     173   58  2  -0.48200     42.208915185700    -22.462525467500    -34.332401413300
     174   58  2  -0.48200     42.712503899800    -23.156333755000    -33.643178323700
     175   59  1   0.96400    -14.763406165600     -4.837802364180    -13.903193920400
     176   59  2  -0.48200    -15.086060721300     -5.239279740970    -14.096092737500
     177   59  2  -0.48200    -14.440751609900     -4.436324987390    -13.710295103400
     178   60  1   0.96400    -22.633882047800      8.358392091670    -17.666205542100
     179   60  2  -0.48200    -22.965876721500      8.793112262650    -17.608778113000
     180   60  2  -0.48200    -22.301887374200      7.923671920690    -17.723632971200
     181   61  1   0.96400    -13.024787138900     24.656131438600     14.495736908700
     182   61  2  -0.48200    -12.911705806200     25.169945602500     14.656072859700
     183   61  2  -0.48200    -13.137868471600     24.142317274800     14.335400957600
     184   62  1   0.96400    -11.387603710100     20.253363115800     13.271533002300
     185   62  2  -0.48200    -10.843245089000     20.276646823500     13.346576727400
     186   62  2  -0.48200    -11.931962331100     20.230079408000     13.196489277300
     187   63  1   0.96400    -45.802080529700    -30.637444735300     13.031614706600
     188   63  2  -0.48200    -45.429699236200    -30.365455526600     12.731858067700
     189   63  2  -0.48200    -46.174461823300    -30.909433944000     13.331371345600
     190   64  1   0.96400      7.278623196520     18.522588928200     -6.735293568620
     191   64  2  -0.48200      7.125070686910     18.022539595400     -6.905212053750
     192   64  2  -0.48200      7.432175706130     19.022638260900     -6.565375083480
     193   65  1   0.96400    -21.669247907400     32.306408080800      1.048407611390
     194   65  2  -0.48200    -21.343583960200     32.270496752900      1.490169277940
     195   65  2  -0.48200    -21.994911854600     32.342319408800      0.606645944839
     196   66  1   0.96400    -22.698719595600      8.446363204410    -41.503016638800
     197   66  2  -0.48200    -22.504731251600      8.928906342990    -41.324073514200
     198   66  2  -0.48200    -22.892707939600      7.963820065840    -41.681959763300
     199   67  1   0.96400     40.744997289400     46.010203225600     42.977812575700
     200   67  2  -0.48200     40.756646067000     45.547646017400     42.680482565300
     201   67  2  -0.48200     40.733348511700     46.472760433800     43.275142586100
     202   68  1   0.96400      7.746521111050      1.828828881360      6.450300120960
     203   68  2  -0.48200      7.967825758330      1.678523417310      5.969745732180
     204   68  2  -0.48200      7.525216463770      1.979134345400      6.930854509730
     205   69  1   0.96400     -6.881593281680     38.806261654200     27.381949618300
     206   69  2  -0.48200     -6.557173925680     38.516291347600     27.718356073000
     207   69  2  -0.48200     -7.206012637690     39.096231960800     27.045543163700
     208   70  1   0.96400      4.611615587070     -9.495385305460    -10.392579878100
     209   70  2  -0.48200      4.758933060490    -10.014963464200    -10.496676462800
     210   70  2  -0.48200      4.464298113660     -8.975807146690    -10.288483293400
     211   71  1   0.96400     28.919880951800     -5.553255831740     36.185305149800
     212   71  2  -0.48200     29.214871046100     -5.779894404140     35.780193064300
     213   71  2  -0.48200     28.624890857500     -5.326617259340     36.590417235200
     214   72  1   0.96400    -26.418152319100     -1.618592774660    -16.754893190300
     215   72  2  -0.48200    -25.969252661600     -1.397277794610    -16.526838861000
     216   72  2  -0.48200    -26.867051976600     -1.839907754700    -16.982947519600
     217   73  1   0.96400     20.652924939900    -37.647971159400    -36.577123117200
     218   73  2  -0.48200     20.358966387300    -37.808312842800    -37.013447439200
     219   73  2  -0.48200     20.946883492600    -37.487629476000    -36.140798795300
     220   74  1   0.96400    -22.282035028100      7.637687747670    -32.341192862400
     221   74  2  -0.48200    -22.135341664900      8.160661530080    -32.254708874900
     222   74  2  -0.48200    -22.428728391300      7.114713965260    -32.427676849900
     223   75  1   0.96400     -5.567154491030    -36.843379159700    -18.599828204900
     224   75  2  -0.48200     -5.115256215390    -36.960152284500    -18.308878061700
     225   75  2  -0.48200     -6.019052766670    -36.726606034900    -18.890778348000
     226   76  1   0.96400     31.700026484100      7.177927535380    -19.567699624300
     227   76  2  -0.48200     31.229092594000      6.963127452860    -19.381736736500
     228   76  2  -0.48200     32.170960374300      7.392727617900    -19.753662512100
     229   77  1   0.96400    -15.349533181700    -34.078062572000    -28.253287917500
     230   77  2  -0.48200    -15.552119477800    -33.611094684100    -28.461614066500
     231   77  2  -0.48200    -15.146946885600    -34.545030459800    -28.044961768500
     232   78  1   0.96400    -15.747936470400    -45.373037808700      0.132954728308
     233   78  2  -0.48200    -15.526788366800    -45.204721670300      0.607573726896
     234   78  2  -0.48200    -15.969084574000    -45.541353947100     -0.341664270279
     235   79  1   0.96400     44.834164295100     -4.917731535070    -41.052784082300
     236   79  2  -0.48200     44.710623777500     -4.950701818350    -40.517853525200
     237   79  2  -0.48200     44.957704812700     -4.884761251800    -41.587714639500
     238   80  1   0.96400    -26.941678996200     33.505109129800    -18.421310968100
     239   80  2  -0.48200    -26.935603234100     33.142928817000    -18.007440812000
     240   80  2  -0.48200    -26.947754758300     33.867289442600    -18.835181124200
     241   81  1   0.96400     -0.383901944932     37.243983872700     29.441133363900
     242   81  2  -0.48200      0.069617743501     37.477533033400     29.235525285900
     243   81  2  -0.48200     -0.837421633364     37.010434711900     29.646741441800
     244   82  1   0.96400     40.767104424400     18.581689733300     -0.832802413879
     245   82  2  -0.48200     40.561591533300     18.078378278900     -0.749483559430
     246   82  2  -0.48200     40.972617315400     19.085001187600     -0.916121268328
     247   83  1   0.96400     33.763494975900    -37.504986548800     43.247325225300
     248   83  2  -0.48200     33.343901182500    -37.149554523400     43.257771459900
     249   83  2  -0.48200     34.183088769400    -37.860418574100     43.236878990700
     250   84  1   0.96400    -23.908438784500    -36.577651174600    -39.792093206200
     251   84  2  -0.48200    -23.905531732200    -36.900599421500    -39.346901136500
     252   84  2  -0.48200    -23.911345836700    -36.254702927700    -40.237285275800
     253   85  1   0.96400    -35.323385907300    -33.964531480900     31.926815504400
     254   85  2  -0.48200    -34.970144833000    -33.713363096600     31.588237321200
     255   85  2  -0.48200    -35.676626981600    -34.215699865100     32.265393687600
     256   86  1   0.96400     44.306131638300    -12.337322617000     31.230941287500
     257   86  2  -0.48200     43.851742264600    -12.639113300800     31.160566006000
     258   86  2  -0.48200     44.760521012000    -12.035531933300     31.301316569000
     259   87  1   0.96400     28.741214169100    -22.993040632400     34.249920562600
     260   87  2  -0.48200     28.265926991300    -22.728809678200     34.167554905500
     261   87  2  -0.48200     29.216501346900    -23.257271586700     34.332286219800
     262   88  1   0.96400     19.004841192400    -11.471520276500    -37.074410234100
     263   88  2  -0.48200     19.470895480100    -11.762543879800    -37.098877830300
     264   88  2  -0.48200     18.538786904700    -11.180496673200    -37.049942638000
     265   89  1   0.96400      5.907976333590     24.962074575600    -21.972786126200
     266   89  2  -0.48200      5.868571006640     25.211635148400    -22.461321427600
     267   89  2  -0.48200      5.947381660550     24.712514002800    -21.484250824800
     268   90  1   0.96400     38.469830378200      7.897542808230     42.984936192100
     269   90  2  -0.48200     38.900082993200      7.624283807330     42.778266877200
     270   90  2  -0.48200     38.039577763200      8.170801809130     43.191605507000
     271   91  1   0.96400    -14.369087493100     40.055235489500     34.132531092800
     272   91  2  -0.48200    -14.028476819500     39.671770763100     33.933938110600
     273   91  2  -0.48200    -14.709698166700     40.438700216000     34.331124075100
     274   92  1   0.96400     -0.061761136031    -20.330327665200     32.719347863300
     275   92  2  -0.48200      0.396974025961    -20.163030066000     32.972475428900
     276   92  2  -0.48200     -0.520496298022    -20.497625264400     32.466220297800
     277   93  1   0.96400    -15.791078333200     -8.847243569850     23.750589586100
     278   93  2  -0.48200    -16.308496941100     -8.945490787660     23.909099738100
     279   93  2  -0.48200    -15.273659725200     -8.748996352040     23.592079434000
     280   94  1   0.96400     -6.883205063900    -35.800810541100     14.669794524500
     281   94  2  -0.48200     -6.596934450690    -35.708191068800     14.209391690700
     282   94  2  -0.48200     -7.169475677100    -35.893430013400     15.130197358300
     283   95  1   0.96400    -42.475997545900    -26.823311961300     41.536646115200
     284   95  2  -0.48200    -42.946355305100    -26.905271889300     41.263614709200
     285   95  2  -0.48200    -42.005639786800    -26.741352033300     41.809677521100
     286   96  1   0.96400      8.445826566650     17.112790199400     25.308586536000
     287   96  2  -0.48200      8.013755589480     16.912416678500     25.583659476900
     288   96  2  -0.48200      8.877897543820     17.313163720400     25.033513595100
     289   97  1   0.96400     29.470299540800     10.960873473400      5.457942215050
     290   97  2  -0.48200     29.003508415000     10.756556276100      5.664970058190
     291   97  2  -0.48200     29.937090666600     11.165190670600      5.250914371920
     292   98  1   0.96400    -23.816237908000    -21.856978198000    -10.456587638000
     293   98  2  -0.48200    -24.115026370000    -21.532701213200    -10.127847783300
     294   98  2  -0.48200    -23.517449445900    -22.181255182800    -10.785327492700
     295   99  1   0.96400     43.811798483400    -22.906549663000     32.653075566000
     296   99  2  -0.48200     44.294325822500    -22.806128607200     32.408979317400
     297   99  2  -0.48200     43.329271144400    -23.006970718800     32.897171814600
     298  100  1   0.96400    -25.019335467800    -21.566239569500     36.180149598700
     299  100  2  -0.48200    -25.487336599400    -21.318489389700     36.031506438200
     300  100  2  -0.48200    -24.551334336100    -21.813989749400     36.328792759100
     301  101  1   0.96400     27.051206169400    -29.095905525900    -25.599738624800
     302  101  2  -0.48200     26.696547468800    -28.847509624700    -25.938879719800
     303  101  2  -0.48200     27.405864870000    -29.344301427100    -25.260597529800
     304  102  1   0.96400    -41.375440760500    -23.895718085200     46.514206729200
     305  102  2  -0.48200    -41.762418664600    -24.161771913800     46.227914113000
     306  102  2  -0.48200    -40.988462856500    -23.629664256700     46.800499345400
     307  103  1   0.96400    -44.055956855100     -8.802440737060     22.896708026600
     308  103  2  -0.48200    -44.324599234700     -9.176743755720     22.596327397900
     309  103  2  -0.48200    -43.787314475500     -8.428137718390     23.197088655400
     310  104  1   0.96400    -39.728575103100     43.267014284800     20.243920679000
     311  104  2  -0.48200    -39.372247969400     43.643581704600     20.060268964600
     312  104  2  -0.48200    -40.084902236700     42.890446865100     20.427572393400
     313  105  1   0.96400     32.578178539300    -15.656449167000    -13.307145802600
     314  105  2  -0.48200     32.795543675400    -15.427663751200    -13.757600718300
     315  105  2  -0.48200     32.360813403100    -15.885234582800    -12.856690886900
     316  106  1   0.96400     -2.469355761390      9.159213961660    -26.126122895300
     317  106  2  -0.48200     -2.066231143810      8.937089174290    -26.427206142200
     318  106  2  -0.48200     -2.872480378970      9.381338749030    -25.825039648500
     319  107  1   0.96400     -4.604669174680     25.561122429800    -28.148103369600
     320  107  2  -0.48200     -5.035704379360     25.614794298200    -28.485487398400
     321  107  2  -0.48200     -4.173633970010     25.507450561400    -27.810719340800
     322  108  1   0.96400     26.632890920600     19.301328971300    -36.374915122800
     323  108  2  -0.48200     26.762776971800     19.231844670200    -36.904822233100
     324  108  2  -0.48200     26.503004869400     19.370813272400    -35.845008012400
     325  109  1   0.96400    -27.557335723800      3.398201430540    -45.244078430100
     326  109  2  -0.48200    -27.818300926600      3.423233441330    -44.760580176300
     327  109  2  -0.48200    -27.296370521100      3.373169419750    -45.727576683900
     328  110  1   0.96400    -17.839622663400     11.425887227200    -17.526061242100
     329  110  2  -0.48200    -17.574197442800     11.003941045700    -17.758463635000
     330  110  2  -0.48200    -18.105047883900     11.847833408600    -17.293658849100
     331  111  1   0.96400     -9.828823107000     24.597492500000     -4.039631235080
     332  111  2  -0.48200     -9.425339525930     24.246775173400     -4.168853356120
     333  111  2  -0.48200    -10.232306688100     24.948209826700     -3.910409114040
     334  112  1   0.96400    -34.160995469600    -45.979932318300     -3.067173967470
     335  112  2  -0.48200    -34.477021819500    -46.353899409500     -3.317725281320
     336  112  2  -0.48200    -33.844969119800    -45.605965227000     -2.816622653620
     337  113  1   0.96400     30.593355519700     36.085864977600    -16.873982764700
     338  113  2  -0.48200     30.390102607900     36.352672234800    -17.309875115300
     339  113  2  -0.48200     30.796608431500     35.819057720300    -16.438090414100
     340  114  1   0.96400    -36.747984179200     27.603906653500     -4.619845847620