LAMMPS Atom File

         3000 atoms
         2000 bonds
         1000 angles
           0 dihedrals
           0 impropers

           2 atom types
           1 bond types
           1 angle types

         0.0  82.1061966171 xlo xhi
         0.0  82.1061966171 ylo yhi
         0.0  82.1061966171 zlo zhi

Masses

         1    1.0e-20
         2   14.00670

Atoms

       1    1  1   0.96400    -24.226462524100     33.264874896300      9.076160055930
       2    1  2  -0.48200    -24.165499998600     33.494860680500      9.572033133990
       3    1  2  -0.48200    -24.287425049600     33.034889112100      8.580286977880
       4    2  1   0.96400    -25.046914263900    -40.618190428400     37.359949387400
       5    2  2  -0.48200    -25.392775770600    -41.017259388100     37.206249083100
       6    2  2  -0.48200    -24.701052757200    -40.219121468700     37.513649691800
       7    3  1   0.96400     24.141052878900    -34.197814261200     -6.064141563850
       8    3  2  -0.48200     23.840343551900    -34.252856147600     -6.521355180690
       9    3  2  -0.48200     24.441762205800    -34.142772374700     -5.606927947020
      10    4  1   0.96400    -14.978177650000    -40.486541439400      6.032908164430
      11    4  2  -0.48200    -14.850403883500    -40.292079445400      6.531263858180
      12    4  2  -0.48200    -15.105951416600    -40.681003433300      5.534552470680
      13    5  1   0.96400    -10.619552856900     34.919032274700    -40.756379162500
      14    5  2  -0.48200    -10.956471886400     34.484944336900    -40.779900001600
      15    5  2  -0.48200    -10.282633827500     35.353120212500    -40.732858323400
      16    6  1   0.96400     30.613999430800      9.667561062490     -2.885059718960
      17    6  2  -0.48200     30.908691023900      9.636325172000     -3.348396728180
      18    6  2  -0.48200     30.319307837800      9.698796952980     -2.421722709740
      19    7  1   0.96400     32.524343861100    -11.384761665000     11.986494833200
      20    7  2  -0.48200     32.134847735300    -11.270498424800     12.357623759500
      21    7  2  -0.48200     32.913839986900    -11.499024905200     11.615365906900
      22    8  1   0.96400     13.452177761600     26.753640662400    -33.811256784700
      23    8  2  -0.48200     13.828039868200     26.655833910800    -33.421819349300
      24    8  2  -0.48200     13.076315655000     26.851447414000    -34.200694220200
      25    9  1   0.96400     24.872000173200     -9.968462722860     37.409683791500
      26    9  2  -0.48200     25.035332880300     -9.447760507170     37.478179261200
      27    9  2  -0.48200     24.708667466200    -10.489164938500     37.341188321700
      28   10  1   0.96400     -1.074365276260     -9.223890999610    -29.197622293500
      29   10  2  -0.48200     -1.182592024020     -9.756487592170    -29.113195753400
      30   10  2  -0.48200     -0.966138528497     -8.691294407060    -29.282048833500
      31   11  1   0.96400    -19.437927260900    -10.653686961300     14.119896221600
      32   11  2  -0.48200    -19.724592813800    -10.843252733600     13.690492357300
      33   11  2  -0.48200    -19.151261707900    -10.464121189000     14.549300086000
      34   12  1   0.96400    -23.507264473300    -29.568498666400     28.271942959800
      35   12  2  -0.48200    -23.684061027000    -29.373235972800     27.789122642200
      36   12  2  -0.48200    -23.330467919700    -29.763761359900     28.754763277500
      37   13  1   0.96400    -26.052917595900    -15.061118957300     28.300329027700
      38   13  2  -0.48200    -25.648271175500    -15.123056743900     27.933007662900
      39   13  2  -0.48200    -26.457564016300    -14.999181170700     28.667650392500
      40   14  1   0.96400     29.246729727300     33.306312310800    -40.004578248400
      41   14  2  -0.48200     29.048586238000     33.800273807300    -39.865865604100
      42   14  2  -0.48200     29.444873216600     32.812350814400    -40.143290892600
      43   15  1   0.96400     16.348513578200     30.068670683100     36.564420828300
      44   15  2  -0.48200     16.173872717100     29.997817793800     36.047719330600
      45   15  2  -0.48200     16.523154439300     30.139523572400     37.081122326000
      46   16  1   0.96400    -33.502685718600     38.791385768900      9.366490991930
      47   16  2  -0.48200    -32.986986737800     38.745465981300      9.180894832690
      48   16  2  -0.48200    -34.018384699400     38.837305556400      9.552087151170
      49   17  1   0.96400    -17.505680861000    -11.901893442800     23.073853838700
      50   17  2  -0.48200    -17.707318070700    -12.123842862700     22.612788886000
      51   17  2  -0.48200    -17.304043651300    -11.679944022900     23.534918791500
      52   18  1   0.96400     -4.932621759130     -2.252067931480     23.582511606100
      53   18  2  -0.48200     -5.085314679880     -1.877905973430     23.955590285600
      54   18  2  -0.48200     -4.779928838370     -2.626229889540     23.209432926600
      55   19  1   0.96400    -24.751775704700    -10.056131960300    -28.953845600900
      56   19  2  -0.48200    -24.344881310000    -10.404616307000    -29.078326971500
      57   19  2  -0.48200    -25.158670099500     -9.707647613610    -28.829364230300
      58   20  1   0.96400     34.838120456100    -35.058902889700     18.549754785200
      59   20  2  -0.48200     34.521135575700    -35.051271555600     18.100352573000
      60   20  2  -0.48200     35.155105336500    -35.066534223800     18.999156997400
      61   21  1   0.96400      6.218000553950    -17.920824198200     28.826901645700
      62   21  2  -0.48200      6.382963983450    -18.320676322600     28.487188022900
      63   21  2  -0.48200      6.053037124440    -17.520972073700     29.166615268500
      64   22  1   0.96400    -15.304646951900    -15.836272972700     12.493875172200
      65   22  2  -0.48200    -15.425888899000    -16.213851044800     12.874972521600
      66   22  2  -0.48200    -15.183405004800    -15.458694900600     12.112777822800
      67   23  1   0.96400    -33.097760189800      3.739165055410    -26.430315748500
      68   23  2  -0.48200    -32.782174841400      3.906836105500    -26.848397447200
      69   23  2  -0.48200    -33.413345538300      3.571494005320    -26.012234049800
      70   24  1   0.96400    -39.738255545200     37.715353847800      1.089159538050
      71   24  2  -0.48200    -39.512795756500     37.986411317400      1.511291901030
      72   24  2  -0.48200    -39.963715333800     37.444296378200      0.667027175068
      73   25  1   0.96400    -16.806338500700     37.947927203700     -3.338432295700
      74   25  2  -0.48200    -16.640030950500     37.423711226500     -3.344709876250
      75   25  2  -0.48200    -16.972646050900     38.472143180900     -3.332154715140
      76   26  1   0.96400     -9.105937126360    -23.783303717200     22.364564453500
      77   26  2  -0.48200     -8.935468863640    -24.116167781200     22.767853538700
      78   26  2  -0.48200     -9.276405389090    -23.450439653100     21.961275368300
      79   27  1   0.96400     20.858413002700     -7.559203656710     21.096322183300
      80   27  2  -0.48200     21.096410396300     -7.992997409340     20.856155114700
      81   27  2  -0.48200     20.620415609100     -7.125409904070     21.336489251900
      82   28  1   0.96400    -24.041018351300      5.074482834960     12.777749108800
      83   28  2  -0.48200    -23.687809037600      5.067077345210     12.356218161600
      84   28  2  -0.48200    -24.394227665100      5.081888324700     13.199280055900
      85   29  1   0.96400    -38.485532511800     12.033777602900    -32.755402492200
      86   29  2  -0.48200    -38.329530412200     11.699335357500    -32.347589140900
      87   29  2  -0.48200    -38.641534611300     12.368219848200    -33.163215843400
      88   30  1   0.96400     24.417220235000     38.303322611000     14.356493631800
      89   30  2  -0.48200     24.561814740000     38.601757203700     13.917712111000
      90   30  2  -0.48200     24.272625730000     38.004888018200     14.795275152600
      91   31  1   0.96400    -26.715315384600     -9.836575176880     12.982159356300
      92   31  2  -0.48200    -26.174002428600     -9.763528566470     12.917781749000
      93   31  2  -0.48200    -27.256628340700     -9.909621787290     13.046536963600
      94   32  1   0.96400     22.017343275100     31.448310795500     35.867981887200
      95   32  2  -0.48200     22.412625154500     31.763283739900     36.084878821400
      96   32  2  -0.48200     21.622061395700     31.133337851000     35.651084953000
      97   33  1   0.96400     27.821232304100    -35.833106437600    -40.281735472900
      98   33  2  -0.48200     28.002454584600    -36.266819660600    -39.996163546300
      99   33  2  -0.48200     27.640010023700    -35.399393214600    -40.567307399500
     100   34  1   0.96400    -11.988160297500    -13.974651171700     38.104871778500
     101   34  2  -0.48200    -12.176237629500    -14.386634973000     38.416955524700
     102   34  2  -0.48200    -11.800082965500    -13.562667370300     37.792788032300
     103   35  1   0.96400     33.268112321600    -26.158653261300    -28.433689951200
     104   35  2  -0.48200     32.878222136200    -26.466076640200    -28.670283504500
     105   35  2  -0.48200     33.658002507000    -25.851229882400    -28.197096397900
     106   36  1   0.96400      4.363411944060     30.674174322200     36.701010852700
     107   36  2  -0.48200      4.437282358600     30.163715322300     36.891994546500
     108   36  2  -0.48200      4.289541529520     31.184633322100     36.510027159000
     109   37  1   0.96400      7.016543174890     10.412511762400    -10.979341163700
     110   37  2  -0.48200      6.597129913060     10.069801389700    -10.883726749300
     111   37  2  -0.48200      7.435956436710     10.755222135100    -11.074955578200
     112   38  1   0.96400    -39.449597246400     -5.950873281370     40.502052593300
     113   38  2  -0.48200    -39.861483957400     -5.960721669580     40.137700639100
     114   38  2  -0.48200    -39.037710535400     -5.941024893160     40.866404547600
     115   39  1   0.96400    -24.544340737700     29.838832569200     -5.622529891610
     116   39  2  -0.48200    -24.208979304200     29.463733177200     -5.400419209690
     117   39  2  -0.48200    -24.879702171200     30.213931961300     -5.844640573530
     118   40  1   0.96400     34.843943344500     20.968642733000      8.233149634280
     119   40  2  -0.48200     34.754890387800     21.347823484900      8.621468483010
     120   40  2  -0.48200     34.932996301100     20.589461981100      7.844830785550
     121   41  1   0.96400    -23.537572610200    -17.759983701500    -36.177637603700
     122   41  2  -0.48200    -23.355097402100    -17.321880853900    -35.899665134900
     123   41  2  -0.48200    -23.720047818400    -18.198086549000    -36.455610072500
     124   42  1   0.96400     -9.182613112660     36.037551632000    -11.134722473100
     125   42  2  -0.48200     -9.363452378670     35.546873201600    -11.305109790000
     126   42  2  -0.48200     -9.001773846650     36.528230062500    -10.964335156200
     127   43  1   0.96400     25.041726843300     21.835891674800      2.587600639400
     128   43  2  -0.48200     24.992221634100     21.806995209800      2.040595860110
     129   43  2  -0.48200     25.091232052500     21.864788139800      3.134605418690
     130   44  1   0.96400    -12.141872368900    -11.302143329500    -17.033598109800
     131   44  2  -0.48200    -12.086653309200    -10.756485647700    -16.992263502900
     132   44  2  -0.48200    -12.197091428600    -11.847801011400    -17.074932716800
     133   45  1   0.96400     -2.854665901520     -2.034191505630    -27.709519015300
     134   45  2  -0.48200     -2.907276675520     -1.931171206240    -27.171821215000
     135   45  2  -0.48200     -2.802055127510     -2.137211805010    -28.247216815500
     136   46  1   0.96400    -26.449569482300     38.642440957000    -14.562026631000
     137   46  2  -0.48200    -25.954882445300     38.882142533900    -14.543918914400
     138   46  2  -0.48200    -26.944256519400     38.402739380100    -14.580134347600
     139   47  1   0.96400      2.419197201880     11.740203406600     21.017173718300
     140   47  2  -0.48200      2.554393728470     12.018600858300     20.562512571900
     141   47  2  -0.48200      2.284000675290     11.461805955000     21.471834864800
     142   48  1   0.96400     37.864101759900      6.711912913980     36.305779446900
     143   48  2  -0.48200     37.509176711900      6.934405026300     35.949373119400
     144   48  2  -0.48200     38.219026808000      6.489420801660     36.662185774300
     145   49  1   0.96400      0.690021573130    -20.713288907700     -9.323218183080
     146   49  2  -0.48200      0.565306885656    -20.466733689300     -9.798777612600
     147   49  2  -0.48200      0.814736260603    -20.959844126100     -8.847658753570
     148   50  1   0.96400     -6.487618848520      5.175004250180     -2.552823837790
     149   50  2  -0.48200     -6.914034965210      5.034810945030     -2.870652616570
     150   50  2  -0.48200     -6.061202731830      5.315197555320     -2.234995059020
     151   51  1   0.96400     -9.117991721250    -21.917754864600     -8.138816337500
     152   51  2  -0.48200     -8.798973397560    -22.222907867100     -8.466854375300
     153   51  2  -0.48200     -9.437010044930    -21.612601862200     -7.810778299690
     154   52  1   0.96400     39.429445296600    -21.396782794900    -30.541030011800
     155   52  2  -0.48200     39.608674333700    -20.915984092000    -30.343015972800
     156   52  2  -0.48200     39.250216259600    -21.877581497700    -30.739044050700
     157   53  1   0.96400    -15.265288165000     -4.626203877390    -12.065628243400
     158   53  2  -0.48200    -14.909280249600     -4.511399476060    -12.468838255200
     159   53  2  -0.48200    -15.621296080300     -4.741008278710    -11.662418231500
     160   54  1   0.96400    -24.050832880900      6.796482672470    -17.647003700300
     161   54  2  -0.48200    -24.295369167500      7.227157465530    -17.407794112000
     162   54  2  -0.48200    -23.806296594400      6.365807879410    -17.886213288700
     163   55  1   0.96400    -10.932657697000     19.019225957600      8.019538084220
     164   55  2  -0.48200    -11.187119241800     18.837769166700      7.566964603730
     165   55  2  -0.48200    -10.678196152200     19.200682748600      8.472111564720
     166   56  1   0.96400     -9.409084060480     18.640371567200     12.910872592300
     167   56  2  -0.48200     -9.611444313470     18.137176171900     13.002222042700
     168   56  2  -0.48200     -9.206723807490     19.143566962600     12.819523141900
     169   57  1   0.96400      9.857435682770     14.367744399200     -5.727892919620
     170   57  2  -0.48200     10.237630195600     14.429344456400     -5.335263876710
     171   57  2  -0.48200      9.477241169910     14.306144341900     -6.120521962520
     172   58  1   0.96400    -18.940404921500     29.950350040500     -2.780135009560
     173   58  2  -0.48200    -18.832607416100     29.950779352000     -2.240802539260
     174   58  2  -0.48200    -19.048202426900     29.949920729000     -3.319467479860
     175   59  1   0.96400    -18.731430647500      8.688361683030    -36.142364453800
     176   59  2  -0.48200    -19.267718821700      8.637071369570    -36.253108744700
     177   59  2  -0.48200    -18.195142473300      8.739651996490    -36.031620162800
     178   60  1   0.96400     36.997859057600     40.497673107200     37.036565408500
     179   60  2  -0.48200     37.431192362100     40.257020338300     36.798220087600
     180   60  2  -0.48200     36.564525753000     40.738325876200     37.274910729400
     181   61  1   0.96400      5.811523546260      4.826818054010      6.732962457840
     182   61  2  -0.48200      6.084851219190      5.204694858070      7.024511946200
     183   61  2  -0.48200      5.538195873320      4.448941249950      6.441412969480
     184   62  1   0.96400     -5.857062688140     36.670320593100     27.044510829500
     185   62  2  -0.48200     -6.170890551200     36.378321803200     26.699911382200
     186   62  2  -0.48200     -5.543234825070     36.962319383100     27.389110276700
     187   63  1   0.96400      3.360432530260     -9.591160426050     -9.329592103820
     188   63  2  -0.48200      3.685379138100     -9.321925049180     -8.976857056100
     189   63  2  -0.48200      3.035485922410     -9.860395802920     -9.682327151550
     190   64  1   0.96400     25.744219592300     -4.675816071830     31.576896663800
     191   64  2  -0.48200     25.365797673000     -5.048110376600     31.433043260500
     192   64  2  -0.48200     26.122641511600     -4.303521767070     31.720750067000
     193   65  1   0.96400    -27.119899378000     -1.547227453630    -16.805436504500
     194   65  2  -0.48200    -27.354730494000     -2.032955896200    -16.698561684900
     195   65  2  -0.48200    -26.885068262100     -1.061499011070    -16.912311324100
     196   66  1   0.96400     14.404144896700    -33.854485029700    -33.055571575400
     197   66  2  -0.48200     14.047378237800    -34.149946528600    -32.759058415800
     198   66  2  -0.48200     14.760911555500    -33.559023530800    -33.352084734900
     199   67  1   0.96400    -19.132274929300      3.115647849020    -27.721088421500
     200   67  2  -0.48200    -19.483495371400      2.693800926320    -27.686601107200
     201   67  2  -0.48200    -18.781054487200      3.537494771710    -27.755575735800
     202   68  1   0.96400     -5.856085746290    -31.515647194100    -16.776621801500
     203   68  2  -0.48200     -5.845463901320    -31.573512902700    -17.323466145200
     204   68  2  -0.48200     -5.866707591250    -31.457781485400    -16.229777457900
     205   69  1   0.96400     28.521787606600      6.932087279030    -17.541432604600
     206   69  2  -0.48200     28.571149839500      7.396973715270    -17.251701744400
     207   69  2  -0.48200     28.472425373800      6.467200842800    -17.831163464800
     208   70  1   0.96400    -14.218698203800    -31.199801203900    -21.763387294700
     209   70  2  -0.48200    -13.682959474000    -31.084347471700    -21.809803338300
     210   70  2  -0.48200    -14.754436933600    -31.315254936100    -21.716971251200
     211   71  1   0.96400    -15.195843913900    -33.261733260100     -2.032903047980
     212   71  2  -0.48200    -15.674121491000    -33.083825095700     -1.827722044350
     213   71  2  -0.48200    -14.717566336800    -33.439641424400     -2.238084051610
     214   72  1   0.96400     39.872419732600     -2.400558646390    -37.531508903500
     215   72  2  -0.48200     40.413419164000     -2.301514336030    -37.528372058800
     216   72  2  -0.48200     39.331420301200     -2.499602956750    -37.534645748100
     217   73  1   0.96400     -2.033642877770     32.171326705300     27.034080614100
     218   73  2  -0.48200     -2.557994702520     32.007058001100     27.057975314300
     219   73  2  -0.48200     -1.509291053020     32.335595409500     27.010185913900
     220   74  1   0.96400     34.169607815100     14.856117044100      0.925463195855
     221   74  2  -0.48200     34.284559091900     15.306876857000      1.218894269560
     222   74  2  -0.48200     34.054656538300     14.405357231200      0.632032122147
     223   75  1   0.96400     31.934599310800    -34.285620752500     38.868808166500
     224   75  2  -0.48200     32.117262791000    -33.777319879700     38.765057139300
     225   75  2  -0.48200     31.751935830500    -34.793921625300     38.972559193700
     226   76  1   0.96400    -20.031648507500    -33.664591475400    -35.728365787400
     227   76  2  -0.48200    -19.975933978100    -33.117471509600    -35.735824627700
     228   76  2  -0.48200    -20.087363036900    -34.211711441100    -35.720906947100
     229   77  1   0.96400    -30.095007496100    -29.961020626300     27.552832699200
     230   77  2  -0.48200    -30.188830010800    -29.458711363800     27.756260181400
     231   77  2  -0.48200    -30.001184981300    -30.463329888800     27.349405216900
     232   78  1   0.96400     40.074016598800    -10.722660911000     26.412272555900
     233   78  2  -0.48200     40.379784560600    -11.039475210400     26.082674841700
     234   78  2  -0.48200     39.768248636900    -10.405846611700     26.741870270200
     235   79  1   0.96400     27.786700916500    -22.820284631300     31.711989396300
     236   79  2  -0.48200     28.054735930400    -22.646332971100     32.159647805400
     237   79  2  -0.48200     27.518665902600    -22.994236291400     31.264330987200
     238   80  1   0.96400     21.096228354400    -10.013155372200    -27.633785084400
     239   80  2  -0.48200     20.739734606500     -9.967180359700    -27.217493713000
     240   80  2  -0.48200     21.452722102200    -10.059130384700    -28.050076455900
     241   81  1   0.96400      3.400724976630     22.173079492100    -20.243229135700
     242   81  2  -0.48200      2.988448590700     22.410415940000    -20.519271871700
     243   81  2  -0.48200      3.813001362570     21.935743044200    -19.967186399700
     244   82  1   0.96400     33.743921558900      7.064794885570     37.661021353700
     245   82  2  -0.48200     33.759454300200      6.781682417980     38.132302654700
     246   82  2  -0.48200     33.728388817700      7.347907353160     37.189740052700
     247   83  1   0.96400    -13.283330068900     36.833266969800     28.687439364300
     248   83  2  -0.48200    -13.795787672700     37.030428878300     28.719288792600
     249   83  2  -0.48200    -12.770872465000     36.636105061200     28.655589936100
     250   84  1   0.96400     -0.274311750802    -15.975888655800     28.819485407700
     251   84  2  -0.48200      0.225829553115    -15.748836462200     28.791095665500
     252   84  2  -0.48200     -0.774453054718    -16.202940849500     28.847875149900
     253   85  1   0.96400    -17.273510934900     -5.699728201260     21.429960495100
     254   85  2  -0.48200    -17.365909954700     -5.209276523240     21.198833749200
     255   85  2  -0.48200    -17.181111915000     -6.190179879290     21.661087240900
     256   86  1   0.96400     -6.554709202610    -28.636917940500     13.211153538800
     257   86  2  -0.48200     -6.559479327760    -29.030806497200     13.594988204700
     258   86  2  -0.48200     -6.549939077470    -28.243029383800     12.827318872800
     259   87  1   0.96400    -31.360569630200    -22.812724808400    -40.316212639800
     260   87  2  -0.48200    -30.830876101700    -22.680812149200    -40.248953319500
     261   87  2  -0.48200    -31.890263158800    -22.944637467600    -40.383471960100
     262   88  1   0.96400      6.050364686080     12.438806653500     20.868913732600
     263   88  2  -0.48200      6.356299883420     12.323683034400     21.311237378000
     264   88  2  -0.48200      5.744429488750     12.553930272700     20.426590087100
     265   89  1   0.96400     24.401475209500     10.603397946800      6.088977474480
     266   89  2  -0.48200     24.780841239900     10.205663438500      6.108692338270
     267   89  2  -0.48200     24.022109179200     11.001132455200      6.069262610700
     268   90  1   0.96400    -22.091819487100    -17.053967935600     -8.964488171910
     269   90  2  -0.48200    -21.978334009200    -17.444526349800     -9.334738319000
     270   90  2  -0.48200    -22.205304964900    -16.663409521500     -8.594238024830
     271   91  1   0.96400     37.535702080300    -17.772651330300     27.169294032300
     272   91  2  -0.48200     37.625138282800    -18.301397881200     27.047112811600
     273   91  2  -0.48200     37.446265877800    -17.243904779500     27.291475252900
     274   92  1   0.96400    -23.716106450200    -19.056518998700     33.952781415900
     275   92  2  -0.48200    -23.748224048500    -18.775627745700     33.481009687300
     276   92  2  -0.48200    -23.683988851900    -19.337410251600     34.424553144500
     277   93  1   0.96400     21.529601958700    -25.071383694300    -20.983450823300
     278   93  2  -0.48200     21.044827270600    -25.059728537600    -20.723917282000
     279   93  2  -0.48200     22.014376646900    -25.083038851000    -21.242984364500
     280   94  1   0.96400    -34.508053209600    -20.915980915000     39.566384233800
     281   94  2  -0.48200    -34.354096408300    -21.440673205800     39.625505324400
     282   94  2  -0.48200    -34.662010010900    -20.391288624300     39.507263143300
     283   95  1   0.96400    -40.021103837300     -8.950232979160     20.020980240500
     284   95  2  -0.48200    -39.974301619400     -9.445556267790     19.786535381100
     285   95  2  -0.48200    -40.067906055100     -8.454909690520     20.255425100000
     286   96  1   0.96400    -32.585033758500     36.695108871500     16.082696322200
     287   96  2  -0.48200    -33.122885001900     36.727187014800     15.972301427900
     288   96  2  -0.48200    -32.047182515100     36.663030728200     16.193091216400
     289   97  1   0.96400     28.364087932200    -16.608666988500    -13.228805092700
     290   97  2  -0.48200     28.672289037700    -16.669709086900    -12.777378530800
     291   97  2  -0.48200     28.055886826700    -16.547624890000    -13.680231654600
     292   98  1   0.96400     -2.157180953640      8.001310389250    -22.823270580600
     293   98  2  -0.48200     -2.182513255720      8.524084574110    -22.654257486200
     294   98  2  -0.48200     -2.131848651550      7.478536204380    -22.992283675100
     295   99  1   0.96400     -2.981954102630     23.153008162300    -23.255292044800
     296   99  2  -0.48200     -2.663274214060     22.804882780100    -23.537695739600
     297   99  2  -0.48200     -3.300633991200     23.501133544600    -22.972888350000
     298  100  1   0.96400     23.659655152900     15.688598756300    -32.682650717400
     299  100  2  -0.48200     23.908144363500     15.763270960400    -32.197700024900
     300  100  2  -0.48200     23.411165942300     15.613926552200    -33.167601409900
     301  101  1   0.96400    -28.438385004800      1.620992630350    -37.259080900800
     302  101  2  -0.48200    -28.128152197500      1.318588055080    -37.597912832800
     303  101  2  -0.48200    -28.748617812100      1.923397205630    -36.920248968900
     304  102  1   0.96400    -15.287467431500     12.325040346000    -12.542188781800
     305  102  2  -0.48200    -14.951079073700     12.288113643700    -12.975754568500
     306  102  2  -0.48200    -15.623855789200     12.361967048400    -12.108622995000
     307  103  1   0.96400     -5.802890696970     20.806516186100     -3.942551048890
     308  103  2  -0.48200     -5.404992584680     20.647776945100     -4.287484296920
     309  103  2  -0.48200     -6.200788809260     20.965255427100     -3.597617800870
     310  104  1   0.96400    -26.867154109400     39.391501826300     -4.162611824810
     311  104  2  -0.48200    -26.810673787700     39.789461124000     -3.787194229780
     312  104  2  -0.48200    -26.923634431100     38.993542528700     -4.538029419850
     313  105  1   0.96400     26.539669201700     33.240368429300    -17.413881335300
     314  105  2  -0.48200     26.810396383200     33.672872595000    -17.619178534200
     315  105  2  -0.48200     26.268942020200     32.807864263700    -17.208584136400
     316  106  1   0.96400    -33.701284545900     25.660856124100     -3.869313985540
     317  106  2  -0.48200    -34.219427693800     25.484682554500     -3.923999921600
     318  106  2  -0.48200    -33.183141397900     25.837029693700     -3.814628049470
     319  107  1   0.96400    -17.820218287200    -25.249063469600    -19.988219672700
     320  107  2  -0.48200    -18.241406957900    -25.600480676300    -19.948144113000
     321  107  2  -0.48200    -17.399029616500    -24.897646262900    -20.028295232500
     322  108  1   0.96400     19.991024344400     37.662571810000     -0.356961954947
     323  108  2  -0.48200     20.107011348700     37.396700299400     -0.824251324314
     324  108  2  -0.48200     19.875037340200     37.928443320500      0.110327414419
     325  109  1   0.96400    -33.096430228400     34.177036729300     26.512237742400
     326  109  2  -0.48200    -33.109866556200     34.470245293600     26.977370199800
     327  109  2  -0.48200    -33.082993900500     33.883828165000     26.047105285000
     328  110  1   0.96400    -20.841895824100      0.299593467029     31.599577503800
     329  110  2  -0.48200    -20.842446515400     -0.196264448194     31.361618211800
     330  110  2  -0.48200    -20.841345132800      0.795451382252     31.837536795800
     331  111  1   0.96400    -31.407723476000    -37.367030780000     35.692401416700
     332  111  2  -0.48200    -31.123210374900    -37.572622030000     35.268981373300
     333  111  2  -0.48200    -31.692236577200    -37.161439530000     36.115821460200
     334  112  1   0.96400     35.543468975800    -30.999317398900    -17.189229209000
     335  112  2  -0.48200     35.615332487100    -31.235754583100    -17.680587625700
     336  112  2  -0.48200     35.471605464500    -30.762880214700    -16.697870792300
     337  113  1   0.96400    -40.567637992900     28.080831612900    -16.027322278300
     338  113  2  -0.48200    -40.473817537500     28.522965147500    -16.340716055800
     339  113  2  -0.48200    -40.661458448200     27.638698078300    -15.713928500900
     340  114  1   0.96400     23.114826763900    -26.071212372100    -38.805522530500