LAMMPS Atom File

         3000 atoms
         2000 bonds
         1000 angles
           0 dihedrals
           0 impropers

           2 atom types
           1 bond types
           1 angle types

         0.0  38.7222878235 xlo xhi
         0.0  38.7222878235 ylo yhi
         0.0  38.7222878235 zlo zhi

Masses

         1    1.0e-20
         2   14.00670

Atoms

       1    1  1   0.96400    -10.015223851000     10.846201917700      3.337024032630
       2    1  2  -0.48200    -10.038345181500     10.510934179200      2.901638057200
       3    1  2  -0.48200     -9.992102520440     11.181469656200      3.772410008070
       4    2  1   0.96400      8.419011195130      1.398606926480     -1.753973275070
       5    2  2  -0.48200      8.031879123120      1.631962563830     -2.067300428930
       6    2  2  -0.48200      8.806143267130      1.165251289130     -1.440646121220
       7    3  1   0.96400    -11.862445318200    -18.662680966100     15.828362664300
       8    3  2  -0.48200    -11.966021136600    -18.630933028900     16.367588144400
       9    3  2  -0.48200    -11.758869499800    -18.694428903400     15.289137184300
      10    4  1   0.96400     13.134840306400    -16.877838077200     -1.208633252490
      11    4  2  -0.48200     12.992444959000    -16.515857647900     -0.819796868079
      12    4  2  -0.48200     13.277235653800    -17.239818506500     -1.597469636890
      13    5  1   0.96400     -9.288466160240     17.478233047900      0.695109643729
      14    5  2  -0.48200     -9.000139705540     17.416466749100      1.159386263710
      15    5  2  -0.48200     -9.576792614930     17.539999346700      0.230833023750
      16    6  1   0.96400     19.017695453300      5.825854553650     -3.235721545610
      17    6  2  -0.48200     19.416603254934      5.456305502450     -3.318220421880
      18    6  2  -0.48200     18.618787651700      6.195403604860     -3.153222669340
      19    7  1   0.96400     17.028936601900     -4.108324115670      5.932378133830
      20    7  2  -0.48200     17.101313880900     -4.152461574830      5.388950664710
      21    7  2  -0.48200     16.956559323000     -4.064186656510      6.475805602940
      22    8  1   0.96400      7.712185677140     12.542507754200    -17.691012369800
      23    8  2  -0.48200      7.363146609330     12.319175621300    -18.052667575200
      24    8  2  -0.48200      8.061224744950     12.765839887100    -17.329357164400
      25    9  1   0.96400      9.427034714530     -5.489512681100     16.560414389200
      26    9  2  -0.48200      9.133444961290     -5.885253211730     16.804738946300
      27    9  2  -0.48200      9.720624467770     -5.093772150470     16.316089832100
      28   10  1   0.96400     -0.617038797427     -4.270011350270    -14.479496223100
      29   10  2  -0.48200     -0.555368725702     -3.978964602450    -14.942085233800
      30   10  2  -0.48200     -0.678708869153     -4.561058098080    -14.016907212400
      31   11  1   0.96400    -10.386847303700     -1.710393182390      2.587429123720
      32   11  2  -0.48200    -10.517574105400     -2.244066132860      2.611999130670
      33   11  2  -0.48200    -10.256120501900     -1.176720231930      2.562859116760
      34   12  1   0.96400    -11.112167761200    -11.318705487100     12.233051294400
      35   12  2  -0.48200    -10.856521307600    -11.744087916600     12.470105464300
      36   12  2  -0.48200    -11.367814214700    -10.893323057600     11.995997124600
      37   13  1   0.96400    -13.022650676600     -8.344941020370     10.130217654400
      38   13  2  -0.48200    -13.114848974800     -8.752795841050      9.772930768230
      39   13  2  -0.48200    -12.930452378400     -7.937086199690     10.487504540600
      40   14  1   0.96400     15.290770157100     15.023832508600    -15.633285476400
      41   14  2  -0.48200     15.141326929500     14.707014201700    -15.209265568600
      42   14  2  -0.48200     15.440213384800     15.340650815400    -16.057305384100
      43   15  1   0.96400      7.655883113060     14.721231362600     14.436814611600
      44   15  2  -0.48200      7.356816581700     14.282942181800     14.581596529700
      45   15  2  -0.48200      7.954949644420     15.159520543400     14.292032693400
      46   16  1   0.96400    -19.145101448800     17.400283028100      3.073294987650
      47   16  2  -0.48200    -18.761827416200     17.448301280700      2.681765597510
      48   16  2  -0.48200    -19.528375481434     17.352264775500      3.464824377790
      49   17  1   0.96400     -7.256137874280     -5.426318422660     12.649151338600
      50   17  2  -0.48200     -7.124429586930     -5.504040758380     13.177462010000
      51   17  2  -0.48200     -7.387846161630     -5.348596086930     12.120840667100
      52   18  1   0.96400     -1.262270369880     -5.217185177640     17.264002781800
      53   18  2  -0.48200     -1.547534446880     -4.964302183510     16.867550265600
      54   18  2  -0.48200     -0.977006292874     -5.470068171770     17.660455298100
      55   19  1   0.96400    -15.227825170200     -2.578525185260    -15.813516654300
      56   19  2  -0.48200    -15.384398360800     -2.072673341190    -15.962173130200
      57   19  2  -0.48200    -15.071251979600     -3.084377029340    -15.664860178400
      58   20  1   0.96400     15.386627812200    -12.678356736900      8.944413653030
      59   20  2  -0.48200     15.130843677600    -12.307729450200      9.260182383000
      60   20  2  -0.48200     15.642411946900    -13.048984023500      8.628644923060
      61   21  1   0.96400      3.169095778150     -5.631339975590     12.578022731300
      62   21  2  -0.48200      2.750062229510     -5.972187423400     12.681627279700
      63   21  2  -0.48200      3.588129326800     -5.290492527790     12.474418183000
      64   22  1   0.96400     -7.531426751820     -5.140529655900      1.403806078390
      65   22  2  -0.48200     -7.785399601770     -4.974748710400      0.944987519914
      66   22  2  -0.48200     -7.277453901870     -5.306310601390      1.862624636860
      67   23  1   0.96400     -2.181365842910     -7.383747446560    -18.771395089600
      68   23  2  -0.48200     -1.935606589420     -7.655749199850    -19.181416351900
      69   23  2  -0.48200     -2.427125096390     -7.111745693270    -18.361373827300
      70   24  1   0.96400    -17.753621681000      1.608553985800    -16.124987277400
      71   24  2  -0.48200    -18.036030611800      1.146265558670    -16.220037821600
      72   24  2  -0.48200    -17.471212750200      2.070842412940    -16.029936733200
      73   25  1   0.96400    -19.269656357000     19.201136078300     -0.120788015845
      74   25  2  -0.48200    -19.044196568400     19.472193547934      0.301344347136
      75   25  2  -0.48200    -19.495116145634     18.930078608700     -0.542920378827
      76   26  1   0.96400     -5.525395816760    -12.403341790700     10.481677987000
      77   26  2  -0.48200     -5.170824049060    -12.772444320700     10.280327089600
      78   26  2  -0.48200     -5.879967584450    -12.034239260700     10.683028884400
      79   27  1   0.96400     10.727521311300     -2.415332711800     10.156081357600
      80   27  2  -0.48200     11.198016167600     -2.211865039820      9.956743712810
      81   27  2  -0.48200     10.257026455000     -2.618800383790     10.355419002400
      82   28  1   0.96400     15.340233001300    -15.048397444700     -9.601888206570
      83   28  2  -0.48200     15.275799518900    -15.332534859800    -10.068379638100
      84   28  2  -0.48200     15.404666483700    -14.764260029600     -9.135396775050
      85   29  1   0.96400     -8.672479088540      0.920001352549      7.737296906750
      86   29  2  -0.48200     -8.895541553860      0.443276392720      7.577683469830
      87   29  2  -0.48200     -8.449416623230      1.396726312380      7.896910343670
      88   30  1   0.96400     16.261548534200     -7.537961708810     -8.778705912270
      89   30  2  -0.48200     15.855432244800     -7.219323063990     -8.588866576300
      90   30  2  -0.48200     16.667664823700     -7.856600353630     -8.968545248240
      91   31  1   0.96400    -11.391452302200      4.506419065020    -14.600064755000
      92   31  2  -0.48200    -11.519133352900      4.195009156780    -14.165068871900
      93   31  2  -0.48200    -11.263771251500      4.817828973260    -15.035060638100
      94   32  1   0.96400     12.468920394700     18.921631083100      7.666205816330
      95   32  2  -0.48200     12.854781664400     18.609519175000      7.903265381260
      96   32  2  -0.48200     12.083059125000     19.233742991300      7.429146251390
      97   33  1   0.96400    -11.411058769600     -5.667153755500      7.108796711700
      98   33  2  -0.48200    -11.505489410200     -5.127270031970      7.154714237580
      99   33  2  -0.48200    -11.316628129000     -6.207037479030      7.062879185810
     100   34  1   0.96400      8.968923121840    -17.370720441000    -18.803128871600
     101   34  2  -0.48200      8.918409013590    -17.420791011300    -18.257747112800
     102   34  2  -0.48200      9.019437230100    -17.320649870800    -19.348510630500
     103   35  1   0.96400      5.776502917810     -5.542109605530      8.876643140960
     104   35  2  -0.48200      6.264679497350     -5.720635839310      9.056398561010
     105   35  2  -0.48200      5.288326338270     -5.363583371740      8.696887720900
     106   36  1   0.96400     13.809974909600    -18.487666886400    -15.727220030700
     107   36  2  -0.48200     13.878010570100    -18.282019021200    -16.232769340300
     108   36  2  -0.48200     13.741939249100    -18.693314751600    -15.221670721100
     109   37  1   0.96400    -12.224016322900    -15.919088944900      6.638483404380
     110   37  2  -0.48200    -12.519772099700    -15.473169649900      6.765701732070
     111   37  2  -0.48200    -11.928260546200    -16.365008239900      6.511265076690
     112   38  1   0.96400     -6.478264964910     -5.067378414410     18.887341717000
     113   38  2  -0.48200     -6.191719037810     -4.625512440700     19.045916282800
     114   38  2  -0.48200     -6.764810892000     -5.509244388120     18.728767151100
     115   39  1   0.96400     13.146010302600    -10.997552226900    -10.822389174000
     116   39  2  -0.48200     13.266014763200    -11.216849512500    -11.312294909800
     117   39  2  -0.48200     13.026005842100    -10.778254941200    -10.332483438200
     118   40  1   0.96400     -1.193653744320     19.303705646700     16.036541338800
     119   40  2  -0.48200     -1.249245951510     18.792679071700     16.232146415900
     120   40  2  -0.48200     -1.138061537130     19.814732221634     15.840936261700
     121   41  1   0.96400      5.447409848240      0.947190726228     -0.595527089621
     122   41  2  -0.48200      5.431710727260      0.746408516350     -0.083726306311
     123   41  2  -0.48200      5.463108969220      1.147972936110     -1.107327872930
     124   42  1   0.96400    -19.332141066100     -2.259190985270    -18.293666445700
     125   42  2  -0.48200    -19.019489420900     -2.582282451480    -17.976868634500
     126   42  2  -0.48200    -19.644792711434     -1.936099519060    -18.610464256900
     127   43  1   0.96400    -10.004413817600     15.870438364700     -3.228761537000
     128   43  2  -0.48200    -10.236528596200     15.416906072800     -3.021563106160
     129   43  2  -0.48200     -9.772299039030     16.323970656600     -3.435959967850
     130   44  1   0.96400     11.740044094600     11.043979941900      4.972863663070
     131   44  2  -0.48200     11.453833592900     10.669071099600      4.689973386290
     132   44  2  -0.48200     12.026254596300     11.418888784200      5.255753939860
     133   45  1   0.96400    -12.277332447500     -7.347107145930     18.958981881900
     134   45  2  -0.48200    -12.775144212800     -7.579889935550     18.936719376500
     135   45  2  -0.48200    -11.779520682200     -7.114324356320     18.981244387400
     136   46  1   0.96400     -3.959850251460     16.526089624700     -5.770400582310
     137   46  2  -0.48200     -4.035731070330     16.097705449500     -5.433905263280
     138   46  2  -0.48200     -3.883969432600     16.954473800000     -6.106895901340
     139   47  1   0.96400      9.964779272860      7.340458540910      6.149739872730
     140   47  2  -0.48200      9.986501137470      6.884796038100      6.456985448990
     141   47  2  -0.48200      9.943057408250      7.796121043720      5.842494296470
     142   48  1   0.96400     -1.874908227510     -7.170449136860    -11.567295509300
     143   48  2  -0.48200     -1.552997097590     -6.955627446050    -11.176495220600
     144   48  2  -0.48200     -2.196819357420     -7.385270827660    -11.958095797900
     145   49  1   0.96400      0.050715829538     -0.411092829157    -14.340618348600
     146   49  2  -0.48200     -0.150117861490     -0.049638341975    -14.703270361200
     147   49  2  -0.48200      0.251549520567     -0.772547316339    -13.977966336000
     148   50  1   0.96400    -13.377887588300     16.930578829000     -5.780142706830
     149   50  2  -0.48200    -13.885761877400     17.003034752600     -5.581865512810
     150   50  2  -0.48200    -12.870013299300     16.858122905300     -5.978419900860
     151   51  1   0.96400     -2.501003932090      6.853188575940     13.625867465200
     152   51  2  -0.48200     -2.192501435710      6.398126033440     13.610237617500
     153   51  2  -0.48200     -2.809506428470      7.308251118440     13.641497313000
     154   52  1   0.96400     16.937224536600      3.924689608950     15.420138373700
     155   52  2  -0.48200     16.547871657300      3.662453969270     15.706733566700
     156   52  2  -0.48200     17.326577415900      4.186925248630     15.133543180700
     157   53  1   0.96400      1.545683933090    -10.176996886900     -4.239129467410
     158   53  2  -0.48200      1.806915430100     -9.704745302050     -4.133126894080
     159   53  2  -0.48200      1.284452436080    -10.649248471800     -4.345132040740
     160   54  1   0.96400      1.684615489740      5.256592653530      1.871340542860
     161   54  2  -0.48200      1.199298646100      5.069249107410      2.049862129830
     162   54  2  -0.48200      2.169932333370      5.443936199660      1.692818955890
     163   55  1   0.96400     -2.676043495860    -12.476780912200     -4.446969684190
     164   55  2  -0.48200     -2.724273085310    -12.993515871600     -4.629065506420
     165   55  2  -0.48200     -2.627813906410    -11.960045952900     -4.264873861960
     166   56  1   0.96400    -15.080920344200    -10.629019681200    -15.494387916900
     167   56  2  -0.48200    -15.525759667900    -10.928728381800    -15.616013041100
     168   56  2  -0.48200    -14.636081020400    -10.329310980600    -15.372762792600
     169   57  1   0.96400     -6.466071036400     -3.101130148980     -3.997154599690
     170   57  2  -0.48200     -6.648471876570     -3.261327166560     -3.503629677260
     171   57  2  -0.48200     -6.283670196230     -2.940933131410     -4.490679522130
     172   58  1   0.96400    -12.956088747300      5.915446658080    -10.090302088700
     173   58  2  -0.48200    -12.509513029600      5.644829527190     -9.917569645880
     174   58  2  -0.48200    -13.402664465000      6.186063788980    -10.263034531600
     175   59  1   0.96400     -7.837462386400     10.878288189400      6.926895671070
     176   59  2  -0.48200     -7.536147159680     11.319118266300      7.058721227910
     177   59  2  -0.48200     -8.138777613110     10.437458112500      6.795070114230
     178   60  1   0.96400    -19.080546748800    -12.210387631700      7.513209717940
     179   60  2  -0.48200    -19.590452947434    -12.371860552200      7.385060724350
     180   60  2  -0.48200    -18.570640550100    -12.048914711200      7.641358711520
     181   61  1   0.96400      0.067980624893      5.375891500840     -4.744329903430
     182   61  2  -0.48200      0.544722501535      5.161881867120     -4.915843925390
     183   61  2  -0.48200     -0.408761251749      5.589901134560     -4.572815881460
     184   62  1   0.96400     -7.875576804240     15.333502194400     -0.080539931779
     185   62  2  -0.48200     -7.910228467060     15.615544963000     -0.551444528208
     186   62  2  -0.48200     -7.840925141420     15.051459425700      0.390364664650
     187   63  1   0.96400     -9.601017490400      3.001708703640    -17.833402746800
     188   63  2  -0.48200     -9.856141392620      3.288315955490    -18.227443452500
     189   63  2  -0.48200     -9.345893588180      2.715101451780    -17.439362041200
     190   64  1   0.96400     16.397177152900    -19.174161532100    -18.152917912700
     191   64  2  -0.48200     16.464604010000    -18.915336268700    -18.633504119300
     192   64  2  -0.48200     16.329750295900    -19.432986795534    -17.672331706100
     193   65  1   0.96400      4.891411046050      2.869065201020      1.778689124070
     194   65  2  -0.48200      4.601785429140      2.688678430820      2.210056270670
     195   65  2  -0.48200      5.181036662950      3.049451971230      1.347321977460
     196   66  1   0.96400     -4.820572327350     19.005182282800      9.760149197510
     197   66  2  -0.48200     -5.225533766300     18.831480494400     10.089290385600
     198   66  2  -0.48200     -4.415610888410     19.178884071100      9.431008009420
     199   67  1   0.96400      1.897171017480     -5.237522680090     -4.590522908410
     200   67  2  -0.48200      1.974460097800     -4.859368747090     -4.198698967050
     201   67  2  -0.48200      1.819881937160     -5.615676613080     -4.982346849780
     202   68  1   0.96400    -11.795818400200     -1.023265766250    -10.875120571000
     203   68  2  -0.48200    -11.570826129900     -1.470274922770    -10.646951133400
     204   68  2  -0.48200    -12.020810670500     -0.576256609716    -11.103290008700
     205   69  1   0.96400     10.618062456200    -15.755281619700    -16.587276277900
     206   69  2  -0.48200     10.677563554800    -15.343336102100    -16.946804454600
     207   69  2  -0.48200     10.558561357600    -16.167227137200    -16.227748101200
     208   70  1   0.96400     -8.637544155450      3.639955244090     -7.765344834960
     209   70  2  -0.48200     -9.100842291440      3.883553204480     -7.596481366780
     210   70  2  -0.48200     -8.174246019470      3.396357283700     -7.934208303130
     211   71  1   0.96400     -3.257929824030    -15.553894122500     -7.829743606380
     212   71  2  -0.48200     -3.162831266950    -16.064903333600     -8.009537518010
     213   71  2  -0.48200     -3.353028381120    -15.042884911500     -7.649949694760
     214   72  1   0.96400     13.759551894500      5.560644953860     -7.401175739620
     215   72  2  -0.48200     13.276910727900      5.596083449560     -7.662521520730
     216   72  2  -0.48200     14.242193061200      5.525206458170     -7.139829958520
     217   73  1   0.96400     -3.832602750520    -12.333690649500    -12.748767340200
     218   73  2  -0.48200     -4.188947088280    -12.195197384600    -12.353370920800
     219   73  2  -0.48200     -3.476258412750    -12.472183914500    -13.144163759600
     220   74  1   0.96400     16.548811394100     -2.082036209950    -16.230481841700
     221   74  2  -0.48200     16.692262990500     -2.364982947230    -16.679773265400
     222   74  2  -0.48200     16.405359797800     -1.799089472660    -15.781190418100
     223   75  1   0.96400    -12.282570953500     14.397644434100     -7.787470100290
     224   75  2  -0.48200    -12.464615489200     14.020265976400     -7.431176279450
     225   75  2  -0.48200    -12.100526417900     14.775022891700     -8.143763921130
     226   76  1   0.96400     14.433586449400      8.374061412130      1.759005059790
     227   76  2  -0.48200     14.874934558700      8.396535380150      2.086429504710
     228   76  2  -0.48200     13.992238340000      8.351587444110      1.431580614870
     229   77  1   0.96400     13.792194422600    -14.481090690100    -18.503408621500
     230   77  2  -0.48200     14.209904264800    -14.797870756300    -18.337068977000
     231   77  2  -0.48200     13.374484580400    -14.164310623800    -18.669748266100
     232   78  1   0.96400    -10.954406509100    -14.700629652300    -17.749389555100
     233   78  2  -0.48200    -11.404674519000    -14.806064041000    -17.451660972400
     234   78  2  -0.48200    -10.504138499200    -14.595195263700    -18.047118137900
     235   79  1   0.96400    -13.883920669000    -13.887541056300     12.987824393000
     236   79  2  -0.48200    -13.560226720600    -14.123785158300     13.364535093800
     237   79  2  -0.48200    -14.207614617400    -13.651296954300     12.611113692300
     238   80  1   0.96400    -17.929279425000     -7.331160949880     12.924693059000
     239   80  2  -0.48200    -18.005285046800     -7.872633252830     12.865271761600
     240   80  2  -0.48200    -17.853273803200     -6.789688646920     12.984114356500
     241   81  1   0.96400     10.967857095100    -10.887199540500     12.476712407400
     242   81  2  -0.48200     10.476007728600    -10.642726731400     12.505299927500
     243   81  2  -0.48200     11.459706461600    -11.131672349500     12.448124887300
     244   82  1   0.96400      7.746144652270     -5.959155964910    -13.265584910900
     245   82  2  -0.48200      7.506950221180     -5.491645045250    -13.102123710200
     246   82  2  -0.48200      7.985339083350     -6.426666884580    -13.429046111600
     247   83  1   0.96400      3.982667621880     12.393999638400     -7.633454828160
     248   83  2  -0.48200      3.864133469160     12.416119281300     -8.170074224040
     249   83  2  -0.48200      4.101201774600     12.371879995500     -7.096835432280
     250   84  1   0.96400     -7.901682951060    -18.688855140300     11.159912145000
     251   84  2  -0.48200     -8.032703021180    -18.416265535900     10.700533598700
     252   84  2  -0.48200     -7.770662880940    -18.961444744800     11.619290691200
     253   85  1   0.96400      1.819091885210     -8.216532057050     16.009996032200
     254   85  2  -0.48200      1.585118754350     -7.737027655660     15.876459134300
     255   85  2  -0.48200      2.053065016060     -8.696036458430     16.143532930100
     256   86  1   0.96400     -2.967265570960    -16.113132159900      7.076373221210
     257   86  2  -0.48200     -2.663031892040    -15.709741070300      6.859077345740
     258   86  2  -0.48200     -3.271499249880    -16.516523249400      7.293669096680
     259   87  1   0.96400    -19.126691739000    -12.019340206200     19.322369916800
     260   87  2  -0.48200    -19.440763823734    -11.568054946300     19.308215774600
     261   87  2  -0.48200    -18.812619654200    -12.470625466200     19.336524059000
     262   88  1   0.96400      2.199786670010     10.308989890000      9.879130147360
     263   88  2  -0.48200      2.685315343270     10.382912675400      9.631547172930
     264   88  2  -0.48200      1.714257996740     10.235067104500     10.126713121800
     265   89  1   0.96400     10.491767453400      1.200943880830      2.745813584060
     266   89  2  -0.48200     10.667706907100      1.525700501470      2.338286350630
     267   89  2  -0.48200     10.315827999700      0.876187260189      3.153340817480
     268   90  1   0.96400     -7.623767602970     -9.466120858160     -3.589820036550
     269   90  2  -0.48200     -7.730459040740     -9.569385590660     -4.119398484110
     270   90  2  -0.48200     -7.517076165210     -9.362856125650     -3.060241588980
     271   91  1   0.96400     18.509724445700    -12.190275150300     16.374606477300
     272   91  2  -0.48200     18.009014981300    -12.410423548300     16.316946134700
     273   91  2  -0.48200     19.010433910100    -11.970126752300     16.432266819900
     274   92  1   0.96400    -11.879458773400     -3.963939152710     18.547362383800
     275   92  2  -0.48200    -12.115965370100     -3.738321694940     18.989698672700
     276   92  2  -0.48200    -11.642952176600     -4.189556610490     18.105026095000
     277   93  1   0.96400     10.338677938100     -9.390625273330    -11.371041264500
     278   93  2  -0.48200      9.857301379390     -9.278479048540    -11.129794849100
     279   93  2  -0.48200     10.820054496900     -9.502771498130    -11.612287679800
     280   94  1   0.96400    -14.840906820100     -5.360281409960     12.454604458500
     281   94  2  -0.48200    -14.529708347200     -5.662541994900     12.116530429200
     282   94  2  -0.48200    -15.152105293000     -5.058020825020     12.792678487800
     283   95  1   0.96400    -17.095721887600     11.526918575600      7.306958881440
     284   95  2  -0.48200    -16.741019122300     11.862858003100      7.559606164010
     285   95  2  -0.48200    -17.450424652800     11.190979148100      7.054311598870
     286   96  1   0.96400     12.883397048400     -9.103067802680     -2.345905907840
     287   96  2  -0.48200     13.011856384900     -9.603593491950     -2.534246644930
     288   96  2  -0.48200     12.754937711900     -8.602542113400     -2.157565170740
     289   97  1   0.96400     -0.874315949866      4.581742020120     -8.403037077720
     290   97  2  -0.48200     -0.962385516798      5.057961726390     -8.663725671140
     291   97  2  -0.48200     -0.786246382934      4.105522313850     -8.142348484290
     292   98  1   0.96400     -1.539683814550      9.720375890110    -10.334222678600
     293   98  2  -0.48200     -1.590423748840      9.517458042220     -9.825548120500
     294   98  2  -0.48200     -1.488943880260      9.923293737990    -10.842897236700
     295   99  1   0.96400     11.002182049400      9.942818677370    -15.005303686400
     296   99  2  -0.48200     11.386228102200      9.877253438550    -15.393517324400
     297   99  2  -0.48200     10.618135996600     10.008383916200    -14.617090048300
     298  100  1   0.96400    -13.911163955000      1.665165991670    -15.539772332900
     299  100  2  -0.48200    -14.227882546700      1.523563965410    -15.966548855000
     300  100  2  -0.48200    -13.594445363300      1.806768017930    -15.112995810800
     301  101  1   0.96400     -9.895729650490     11.198306404700     -9.084228967740
     302  101  2  -0.48200     -9.432654429000     10.948930504100     -9.245079828720
     303  101  2  -0.48200    -10.358804872000     11.447682305200     -8.923378106770
     304  102  1   0.96400     -3.349757651810     12.272969797600     -2.136983896960
     305  102  2  -0.48200     -2.851960085380     12.158095678400     -1.933264679400
     306  102  2  -0.48200     -3.847555218250     12.387843916700     -2.340703114520
     307  103  1   0.96400    -15.622534458600    -17.875521836500      0.160980481785
     308  103  2  -0.48200    -15.553449666400    -17.612722765300      0.639168666136
     309  103  2  -0.48200    -15.691619250700    -18.138320907700     -0.317207702566
     310  104  1   0.96400     12.227255447100     16.782732603200     -6.315520333480
     311  104  2  -0.48200     12.087001069700     17.181060989600     -6.667888331710
     312  104  2  -0.48200     12.367509824500     16.384404216800     -5.963152335240
     313  105  1   0.96400    -14.561095424800     10.141044933200      1.659558138270
     314  105  2  -0.48200    -14.487828574400      9.645759475630      1.431908661800
     315  105  2  -0.48200    -14.634362275200     10.636330390800      1.887207614740
     316  106  1   0.96400     -7.874864595890    -11.665140070000     -7.637164913690
     317  106  2  -0.48200     -8.074408271650    -11.960566837600     -8.055979128400
     318  106  2  -0.48200     -7.675320920140    -11.369713302400     -7.218350698970
     319  107  1   0.96400      8.621098361970     17.345700414900      0.554819284985
     320  107  2  -0.48200      8.610321861680     17.853022251200      0.766971168099
     321  107  2  -0.48200      8.631874862260     16.838378578700      0.342667401872
     322  108  1   0.96400    -15.161253296300     14.592305628900     16.446462566500
     323  108  2  -0.48200    -15.058435468700     14.052750703400     16.418020050100
     324  108  2  -0.48200    -15.264071123900     15.131860554400     16.474905083000
     325  109  1   0.96400    -16.666743187300      9.408520048600    -11.142235118200
     326  109  2  -0.48200    -16.631811090900      9.562793455890    -10.615471922400
     327  109  2  -0.48200    -16.701675283600      9.254246641310    -11.668998314000
     328  110  1   0.96400     -9.682727422650      1.453096216250     13.249339570600
     329  110  2  -0.48200     -9.246393096630      1.344473371100     13.566062530700
     330  110  2  -0.48200    -10.119061748700      1.561719061400     12.932616610500
     331  111  1   0.96400    -14.378881335200    -16.559711383200     15.014040687900
     332  111  2  -0.48200    -14.534172400300    -16.717409995200     14.510537129900
     333  111  2  -0.48200    -14.223590270000    -16.402012771300     15.517544245800
     334  112  1   0.96400     15.974389631400    -13.751201202100     -6.135882788090
     335  112  2  -0.48200     16.278483681200    -13.438407026300     -6.470825488340
     336  112  2  -0.48200     15.670295581500    -14.063995377900     -5.800940087840
     337  113  1   0.96400    -17.157342285600     13.187510285900     -7.908866444190
     338  113  2  -0.48200    -17.133375828200     13.570588136300     -7.514941363120
     339  113  2  -0.48200    -17.181308742900     12.804432435600     -8.302791525260
     340  114  1   0.96400     10.595399360400     -9.641594926780    -17.401379135200