LAMMPS Atom File

         3000 atoms
         2000 bonds
         1000 angles
           0 dihedrals
           0 impropers

           2 atom types
           1 bond types
           1 angle types

         0.0  202.491293474 xlo xhi
         0.0  202.491293474 ylo yhi
         0.0  202.491293474 zlo zhi

Masses

         1    1.0e-20
         2   14.00670

Atoms

       1    1  1   0.96400    -57.265726519300     80.130692522800     18.529385559300
       2    1  2  -0.48200    -57.204763993800     80.360678307000     19.025258637400
       3    1  2  -0.48200    -57.326689044800     79.900706738500     18.033512481300
       4    2  1   0.96400     56.859551832000     -3.322689851560     11.669718061900
       5    2  2  -0.48200     56.330374718500     -3.374834708360     11.810261636800
       6    2  2  -0.48200     57.388728945500     -3.270544994750     11.529174487000
       7    3  1   0.96400    -65.675367549800    101.110386134000     90.751629896900
       8    3  2  -0.48200    -65.971221180900    101.234035564000     90.304772596000
       9    3  2  -0.48200    -65.379513918600    100.986736704000     91.198487197900
      10    4  1   0.96400     53.959486088500    -85.652456358000    -24.243323995500
      11    4  2  -0.48200     54.045256852100    -85.510703062200    -24.767775498800
      12    4  2  -0.48200     53.873715324900    -85.794209653700    -23.718872492300
      13    5  1   0.96400    -29.816141591600    -98.899267681400     18.838337818600
      14    5  2  -0.48200    -30.018133973800    -98.554295720500     19.216085649400
      15    5  2  -0.48200    -29.614149209400    -99.244239642400     18.460589987700
      16    6  1   0.96400    -25.572825099100     95.897881312000    100.892353972000
      17    6  2  -0.48200    -25.312756220600     96.329177789900    101.113368738000
      18    6  2  -0.48200    -25.832893977500     95.466584834100    100.671339206000
      19    7  1   0.96400     72.338214149000     22.405725695600     -6.670198198200
      20    7  2  -0.48200     72.512542602200     22.926108314600     -6.633983281160
      21    7  2  -0.48200     72.163885695800     21.885343076600     -6.706413115240
      22    8  1   0.96400     86.192480137000    -25.786027911600     33.177715177300
      23    8  2  -0.48200     85.753820587800    -25.473979497500     33.290425368300
      24    8  2  -0.48200     86.631139686200    -26.098076325800     33.065004986200
      25    9  1   0.96400     33.215213965000     59.856485725300    -80.670757176500
      26    9  2  -0.48200     33.326961054800     59.479480792100    -80.286205660800
      27    9  2  -0.48200     33.103466875200     60.233490658600    -81.055308692100
      28   10  1   0.96400     56.111451910100    -17.487889254900     95.456253420400
      29   10  2  -0.48200     55.902976162300    -17.618209276500     94.964263019600
      30   10  2  -0.48200     56.319927658000    -17.357569233300     95.948243821300
      31   11  1   0.96400      1.534776965500    -32.959926736100    -69.583524947700
      32   11  2  -0.48200      1.589932018340    -33.135884200100    -69.065358091300
      33   11  2  -0.48200      1.479621912670    -32.783969272200    -70.101691804000
      34   12  1   0.96400    -48.200727694500    -30.245202808600     31.230723848600
      35   12  2  -0.48200    -48.393806935900    -29.740928113800     31.335258239000
      36   12  2  -0.48200    -48.007648453000    -30.749477503300     31.126189458300
      37   13  1   0.96400    -59.154917418400    -77.115402410900     70.350707222500
      38   13  2  -0.48200    -58.962509449200    -76.645584809800     70.139163858000
      39   13  2  -0.48200    -59.347325387600    -77.585220012000     70.562250587000
      40   14  1   0.96400    -62.208962986600    -40.219965796700     65.180853391800
      41   14  2  -0.48200    -62.326993269600    -39.714435441500     64.999172593900
      42   14  2  -0.48200    -62.090932703700    -40.725496151800     65.362534189700
      43   15  1   0.96400     75.545909434700     83.562057477000    -94.446969023400
      44   15  2  -0.48200     75.141178436600     83.887926493300    -94.266685348900
      45   15  2  -0.48200     75.950640432800     83.236188460600    -94.627252698000
      46   16  1   0.96400     39.238374392800     78.473561989400     81.129920016200
      47   16  2  -0.48200     39.716353755000     78.242829765500     80.985703615700
      48   16  2  -0.48200     38.760395030600     78.704294213200     81.274136416700
      49   17  1   0.96400    -88.806499204600     95.158763720400     26.448329550100
      50   17  2  -0.48200    -88.273382886600     95.039762514900     26.512561197600
      51   17  2  -0.48200    -89.339615522700     95.277764925900     26.384097902500
      52   18  1   0.96400    -44.676133855600    -23.906819590300     48.777889423900
      53   18  2  -0.48200    -45.171893152100    -24.033868781600     48.979337240900
      54   18  2  -0.48200    -44.180374559100    -23.779770399000     48.576441607000
      55   19  1   0.96400    -13.313595058900     -7.214267471680     62.439982778700
      56   19  2  -0.48200    -12.927023996300     -6.854177259610     62.287019212100
      57   19  2  -0.48200    -13.700166121600     -7.574357683740     62.592946345300
      58   20  1   0.96400    -67.487845761900    -18.234370950400    -78.868140317100
      59   20  2  -0.48200    -67.568290582300    -17.708963173900    -79.009474315800
      60   20  2  -0.48200    -67.407400941500    -18.759778727000    -78.726806318400
      61   21  1   0.96400     90.095075351300    -80.701839130200     35.681469606800
      62   21  2  -0.48200     90.243604544800    -81.106656132800     35.340057432000
      63   21  2  -0.48200     89.946546157700    -80.297022127700     36.022881781700
      64   22  1   0.96400    -34.690826931900    -48.852423144700     21.404239214700
      65   22  2  -0.48200    -34.581599424800    -49.382563242900     21.501813945200
      66   22  2  -0.48200    -34.800054439000    -48.322283046600     21.306664484200
      67   23  1   0.96400    -15.036134403500    -17.964354990600     92.912253795100
      68   23  2  -0.48200    -15.407791476800    -17.652867558700     92.652741560900
      69   23  2  -0.48200    -14.664477330300    -18.275842422500     93.171766029300
      70   24  1   0.96400    -73.877873634200     15.747541231800    -66.814106616800
      71   24  2  -0.48200    -73.503848510000     16.034071608600    -67.097841615800
      72   24  2  -0.48200    -74.251898758400     15.461010855000    -66.530371617900
      73   25  1   0.96400    -94.850006721300     96.850434832500      4.173373560000
      74   25  2  -0.48200    -94.440590856900     96.959858900200      3.822795432600
      75   25  2  -0.48200    -95.259422585600     96.741010764900      4.523951687390
      76   26  1   0.96400    -41.536725846400     94.802821388800     -6.613810488420
      77   26  2  -0.48200    -41.860892949200     94.428936335100     -6.853863932570
      78   26  2  -0.48200    -41.212558743600     95.176706442500     -6.373757044270
      79   27  1   0.96400    -27.044074906300    -56.355011442500     58.611385223100
      80   27  2  -0.48200    -27.379762125600    -56.708452265400     58.866127594000
      81   27  2  -0.48200    -26.708387687000    -56.001570619600     58.356642852200
      82   28  1   0.96400     51.883316670600    -19.633462245000     50.419826233200
      83   28  2  -0.48200     52.359631825400    -19.894268316400     50.507027531600
      84   28  2  -0.48200     51.407001515800    -19.372656173600     50.332624934900
      85   29  1   0.96400     90.701350525400    -72.759010192300    -50.961448173600
      86   29  2  -0.48200     90.740410791500    -73.006281321400    -50.471722450100
      87   29  2  -0.48200     90.662290259300    -72.511739063100    -51.451173897100
      88   30  1   0.96400    -58.820284870700      4.027156286620     29.054582000800
      89   30  2  -0.48200    -58.588249797400      3.638007935300     29.366388487900
      90   30  2  -0.48200    -59.052319944100      4.416304637940     28.742775513700
      91   31  1   0.96400     86.585456519300    -47.477304114000    -79.288794507900
      92   31  2  -0.48200     86.679769310100    -47.791279371800    -78.847178571900
      93   31  2  -0.48200     86.491143728400    -47.163328856200    -79.730410444000
      94   32  1   0.96400     96.559813362400     35.807201977100    -76.634478335100
      95   32  2  -0.48200     96.945674632100     35.495090068900    -76.397418770100
      96   32  2  -0.48200     96.173952092700     36.119313885200    -76.871537900000
      97   33  1   0.96400     61.319228293100    -98.365267873500     38.844156326800
      98   33  2  -0.48200     61.750604259800    -98.044114068200     38.959373550900
      99   33  2  -0.48200     60.887852326400    -98.686421678700     38.728939102600
     100   34  1   0.96400    -68.216993858700    -23.161844423600     30.039980779900
     101   34  2  -0.48200    -67.671104184400    -23.099600259700     30.065083121800
     102   34  2  -0.48200    -68.762883532900    -23.224088587600     30.014878438000
     103   35  1   0.96400     53.238584501200     76.125444907800     86.190021805100
     104   35  2  -0.48200     52.745314709100     76.122636907700     86.433285093200
     105   35  2  -0.48200     53.731854293300     76.128252908000     85.946758517100
     106   36  1   0.96400     38.784402685300    -39.367796313400     50.065312910500
     107   36  2  -0.48200     39.023229436000    -39.557211750300     49.607509922900
     108   36  2  -0.48200     38.545575934600    -39.178380876600     50.523115898000
     109   37  1   0.96400     69.134147749500    -93.995242601200    -86.875547040700
     110   37  2  -0.48200     69.480339950200    -94.032204631600    -86.449771550000
     111   37  2  -0.48200     68.787955548800    -93.958280570900    -87.301322531500
     112   38  1   0.96400    -48.463627779600    -75.572542404200     17.975120778600
     113   38  2  -0.48200    -48.095568104500    -75.226929060100     18.193257185300
     114   38  2  -0.48200    -48.831687454600    -75.918155748400     17.756984371900
     115   39  1   0.96400    -31.226564845600    -35.695197980200     89.412446692600
     116   39  2  -0.48200    -31.152694431000    -36.205656980100     89.603430386400
     117   39  2  -0.48200    -31.300435260100    -35.184738980300     89.221462998900
     118   40  1   0.96400     85.745492731300    -59.719835784400    -72.016642680400
     119   40  2  -0.48200     85.465949439800    -60.150442667300    -72.213957810600
     120   40  2  -0.48200     86.025036022900    -59.289228901600    -71.819327550200
     121   41  1   0.96400     28.528109757600     23.637152508900    -27.932513631800
     122   41  2  -0.48200     28.956385287200     23.980366102800    -27.968353549900
     123   41  2  -0.48200     28.099834228000     23.293938915000    -27.896673713700
     124   42  1   0.96400     95.290221210900    -16.466639757400     97.688404350900
     125   42  2  -0.48200     95.535088764000    -16.127010985100     97.331764226300
     126   42  2  -0.48200     95.045353657700    -16.806268529700     98.045044475400
     127   43  1   0.96400    -64.461095350700     78.470824507900    -19.750712452000
     128   43  2  -0.48200    -64.073144786000     78.801370855400    -19.543991694900
     129   43  2  -0.48200    -64.849045915500     78.140278160300    -19.957433209200
     130   44  1   0.96400     77.070507488700     51.600358972800     19.297714057100
     131   44  2  -0.48200     76.913162393800     51.920788835700     18.879303703400
     132   44  2  -0.48200     77.227852583600     51.279929109900     19.716124410800
     133   45  1   0.96400    -64.447782727900    -45.927915693700    -85.769642480400
     134   45  2  -0.48200    -64.097015189800    -45.623484633900    -85.475051468800
     135   45  2  -0.48200    -64.798550265900    -46.232346753500    -86.064233491900
     136   46  1   0.96400    -20.360541953400     85.624672689300    -28.152222748900
     137   46  2  -0.48200    -20.298757386900     85.532185628400    -28.690858814300
     138   46  2  -0.48200    -20.422326519900     85.717159750100    -27.613586683500
     139   47  1   0.96400     59.538089676000     56.194810237500     12.677160035000
     140   47  2  -0.48200     59.169235504100     56.094242150200     13.072549285900
     141   47  2  -0.48200     59.906943847900     56.295378324700     12.281770784200
     142   48  1   0.96400    -26.650682858200    -26.366635194900    -45.985287895100
     143   48  2  -0.48200    -26.712828108400    -25.985270900400    -46.376694643500
     144   48  2  -0.48200    -26.588537608100    -26.747999489500    -45.593881146700
     145   49  1   0.96400     -0.146200780477     -4.667895921350    -73.264871178500
     146   49  2  -0.48200      0.370819329921     -4.570307793320    -73.104662680800
     147   49  2  -0.48200     -0.663220890875     -4.765484049380    -73.425079676100
     148   50  1   0.96400    -74.203976243700     93.754973212900    -35.815396404700
     149   50  2  -0.48200    -73.690347922400     93.843560249700    -35.639788077700
     150   50  2  -0.48200    -74.717604564900     93.666386176000    -35.991004731800
     151   51  1   0.96400      2.337105874780     30.714838598700     56.118788204100
     152   51  2  -0.48200      2.743289423170     30.468915015800     55.841233675500
     153   51  2  -0.48200      1.930922326390     30.960762181700     56.396342732800
     154   52  1   0.96400      0.730395660631    -54.933162515400    -28.254560766400
     155   52  2  -0.48200      0.331334164177    -54.972966641000    -27.878175918600
     156   52  2  -0.48200      1.129457157090    -54.893358389800    -28.630945614100
     157   53  1   0.96400    -12.210123151000     13.457662863700     -7.104515602750
     158   53  2  -0.48200    -12.532906630700     13.354090747200     -7.537624875280
     159   53  2  -0.48200    -11.887339671400     13.561234980200     -6.671406330210
     160   54  1   0.96400    -17.093458702900    -60.730117732700    -21.287245612800
     161   54  2  -0.48200    -17.048444324500    -60.272226606200    -20.985899595700
     162   54  2  -0.48200    -17.138473081200    -61.188008859200    -21.588591629900
     163   55  1   0.96400     95.825532255600    -50.874419406400    -79.157035466400
     164   55  2  -0.48200     96.357549126200    -51.011736004900    -79.132495678600
     165   55  2  -0.48200     95.293515385000    -50.737102807900    -79.181575254200
     166   56  1   0.96400    -37.240305776400    -11.798761669900    -33.214535372900
     167   56  2  -0.48200    -37.007632626000    -12.201183087200    -32.920562231300
     168   56  2  -0.48200    -37.472978926800    -11.396340252600    -33.508508514400
     169   57  1   0.96400    -49.915171091900     15.759387220100    -44.942395410900
     170   57  2  -0.48200    -50.019935590300     16.293570389400    -45.020962207000
     171   57  2  -0.48200    -49.810406593400     15.225204050700    -44.863828614900
     172   58  1   0.96400    -30.485340962300     48.545786911400     18.877290227900
     173   58  2  -0.48200    -30.570846780600     48.700565117900     18.356490399000
     174   58  2  -0.48200    -30.399835144100     48.391008705000     19.398090056900
     175   59  1   0.96400    -26.137138322900     45.394108408200     33.403086811400
     176   59  2  -0.48200    -26.235206064900     45.573594501600     32.892530781000
     177   59  2  -0.48200    -26.039070580800     45.214622314700     33.913642841900
     178   60  1   0.96400    100.494452577000    -64.251706290300     26.008372901900
     179   60  2  -0.48200    100.076700460000    -63.967179203900     25.791514639900
     180   60  2  -0.48200    100.912204694000    -64.536233376800     26.225231163900
     181   61  1   0.96400     14.542463966600     32.771105343400    -17.989236333000
     182   61  2  -0.48200     14.817154113000     32.550962485100    -17.566646170500
     183   61  2  -0.48200     14.267773820100     32.991248201700    -18.411826495400
     184   62  1   0.96400    -46.195274194200     72.814270302200     -0.456438581328
     185   62  2  -0.48200    -46.114863607200     72.372438414200     -0.773958218934
     186   62  2  -0.48200    -46.275684781200     73.256102190200     -0.138918943722
     187   63  1   0.96400    -45.908615367800     16.026504251400    -92.288745416300
     188   63  2  -0.48200    -45.827662570300     15.620354600700    -91.926821244800
     189   63  2  -0.48200    -45.989568165200     16.432653902000    -92.650669587700
     190   64  1   0.96400     87.777877762400    100.171772015000     91.747701869600
     191   64  2  -0.48200     87.484632530200     99.776252284300     91.502607242700
     192   64  2  -0.48200     88.071122994700    100.567291746000     91.992796496400
     193   65  1   0.96400     17.790265764500      6.337624168450     14.420028522500
     194   65  2  -0.48200     18.071890959200      6.704134386310     14.718118290700
     195   65  2  -0.48200     17.508640569800      5.971113950590     14.121938754200
     196   66  1   0.96400    -10.969402853100     85.253742534000     59.469628684200
     197   66  2  -0.48200    -10.746935795300     85.756029657500     59.442869504300
     198   66  2  -0.48200    -11.191869911000     84.751455410500     59.496387864100
     199   67  1   0.96400      4.738605531610    -25.488206414700    -21.703681487400
     200   67  2  -0.48200      4.727853776230    -24.938854003200    -21.728101310400
     201   67  2  -0.48200      4.749357287000    -26.037558826200    -21.679261664400
     202   68  1   0.96400     59.654408839400    -12.865028109100     80.445374355900
     203   68  2  -0.48200     59.419577723400    -13.350756551700     80.552249175500
     204   68  2  -0.48200     59.889239955400    -12.379299666600     80.338499536300
     205   69  1   0.96400    -57.757133465400      2.131386442470    -36.851513115600
     206   69  2  -0.48200    -58.038180113800      1.658630603870    -36.847679253300
     207   69  2  -0.48200    -57.476086817000      2.604142281070    -36.855346977900
     208   70  1   0.96400     44.682412124700    -73.974805661800    -78.697836784300
     209   70  2  -0.48200     44.968060399500    -74.148709814400    -78.261187716100
     210   70  2  -0.48200     44.396763849900    -73.800901509200    -79.134485852600
     211   71  1   0.96400    -49.024925269000     11.070531702000    -67.311685894400
     212   71  2  -0.48200    -48.675747215800     11.056079863600    -67.736380880900
     213   71  2  -0.48200    -49.374103322200     11.084983540300    -66.886990907900
     214   72  1   0.96400    -12.317783307300    -76.185954378700    -42.972477687000
     215   72  2  -0.48200    -11.788468439000    -76.308397024500    -43.058113945100
     216   72  2  -0.48200    -12.847098175600    -76.063511733000    -42.886841429000
     217   73  1   0.96400     71.780677606400     12.475613066400    -39.732950980500
     218   73  2  -0.48200     71.442715807100     12.635280118100    -39.329480715400
     219   73  2  -0.48200     72.118639405600     12.315946014700    -40.136421245600
     220   74  1   0.96400    -38.933237289600    -74.273948521400    -62.942819839000
     221   74  2  -0.48200    -38.437500867500    -74.263334088100    -62.704843509000
     222   74  2  -0.48200    -39.428973711600    -74.284562954600    -63.180796169000
     223   75  1   0.96400    -36.520690301800    -95.521526614600      5.694103045530
     224   75  2  -0.48200    -36.371401711900    -95.459724199400      6.219834325170
     225   75  2  -0.48200    -36.669978891800    -95.583329029800      5.168371765880
     226   76  1   0.96400     90.347148888100    -11.299306745300    -91.506096060000
     227   76  2  -0.48200     90.086126900000    -11.771962960800    -91.610803383900
     228   76  2  -0.48200     90.608170876300    -10.826650529900    -91.401388736000
     229   77  1   0.96400    -60.939318637100     71.280184150400    -42.485641106300
     230   77  2  -0.48200    -61.443663187700     71.170926273400    -42.675902217900
     231   77  2  -0.48200    -60.434974086500     71.389442027400    -42.295379994700
     232   78  1   0.96400     -4.678323309930     77.980815574200     60.767456963700
     233   78  2  -0.48200     -4.832192365360     77.484071801700     60.588376148700
     234   78  2  -0.48200     -4.524454254500     78.477559346600     60.946537778700
     235   79  1   0.96400     89.344922575100     40.713980663300      2.536082692910
     236   79  2  -0.48200     89.237949937500     40.905475536800      2.031715199650
     237   79  2  -0.48200     89.451895212800     40.522485789900      3.040450186170
     238   80  1   0.96400     80.609353929100    -83.520052292300     97.024935152100
     239   80  2  -0.48200     80.901577551100    -83.598195202000     97.484281470700
     240   80  2  -0.48200     80.317130307000    -83.441909382500     96.565588833500
     241   81  1   0.96400    -51.165615165300    -79.968044661500    -87.915482455900
     242   81  2  -0.48200    -51.626606219600    -80.263995125700    -87.964478074900
     243   81  2  -0.48200    -50.704624111100    -79.672094197400    -87.866486837000
     244   82  1   0.96400    -76.792099594100    -77.777067163400     66.124873111100
     245   82  2  -0.48200    -76.960109479300    -77.559587897500     66.601292513800
     246   82  2  -0.48200    -76.624089708900    -77.994546429400     65.648453708300
     247   83  1   0.96400    -99.681545057500    -27.454613031300     67.049950358400
     248   83  2  -0.48200    -99.780296568700    -26.923399439900     66.947187235700
     249   83  2  -0.48200    -99.582793546400    -27.985826622600     67.152713481100
     250   84  1   0.96400     64.982008321300    -50.000871676300     77.979422369700
     251   84  2  -0.48200     65.488507332700    -49.818842164700     78.092665507500
     252   84  2  -0.48200     64.475509309800    -50.182901188000     77.866179231900
     253   85  1   0.96400     42.023736033400    -24.607406055700    -72.697073751300
     254   85  2  -0.48200     42.430575057200    -24.659274503600    -72.330615468800
     255   85  2  -0.48200     41.616897009600    -24.555537607700    -73.063532033800
     256   86  1   0.96400     13.315438025900     55.604725479400    -46.021331643300
     257   86  2  -0.48200     13.330970767100     55.321613011800    -45.550050342300
     258   86  2  -0.48200     13.299905284600     55.887837947000    -46.492612944300
     259   87  1   0.96400     81.318504125400     12.158829863100     90.999285976400
     260   87  2  -0.48200     81.507480805300     12.611489281100     91.248057489600
     261   87  2  -0.48200     81.129527445500     11.706170445100     90.750514463300
     262   88  1   0.96400    -34.397455505400     90.359909827600     68.691493241100
     263   88  2  -0.48200    -33.968606751800     90.153252503400     68.416027278100
     264   88  2  -0.48200    -34.826304259100     90.566567151900     68.966959204200
     265   89  1   0.96400     -3.025654851110    -42.838603144100     72.037735391800
     266   89  2  -0.48200     -2.969846056800    -43.360460190900     72.202206061600
     267   89  2  -0.48200     -3.081463645410    -42.316746097400     71.873264721900
     268   90  1   0.96400    -34.619568934200    -15.702499091000     49.003368243400
     269   90  2  -0.48200    -34.998929774500    -15.475011893200     48.676512116600
     270   90  2  -0.48200    -34.240208093900    -15.929986288900     49.330224370300
     271   91  1   0.96400    -12.144978880600    -77.925768018800     35.255165630700
     272   91  2  -0.48200    -12.068165052700    -77.549904444000     35.649280092500
     273   91  2  -0.48200    -12.221792708600    -78.301631593500     34.861051168900
     274   92  1   0.96400    -91.566846975800    -57.253270982000     88.098658375500
     275   92  2  -0.48200    -91.513984139500    -57.023165508600     88.595404781300
     276   92  2  -0.48200    -91.619709812000    -57.483376455500     87.601911969800
     277   93  1   0.96400     16.930507264500     34.949086482100     56.660340193400
     278   93  2  -0.48200     16.556332771400     35.348090058900     56.717695179000
     279   93  2  -0.48200     17.304681757700     34.550082905300     56.602985207800
     280   94  1   0.96400     61.865487076500     27.169692702400     14.627679218700
     281   94  2  -0.48200     61.343649789700     27.303347486800     14.516673612200
     282   94  2  -0.48200     62.387324363400     27.036037918100     14.738684825100
     283   95  1   0.96400    -46.506819997700    -49.016061183700    -27.809558719000
     284   95  2  -0.48200    -46.232467201700    -49.397323028000    -28.095687971900
     285   95  2  -0.48200    -46.781172793800    -48.634799339400    -27.523429466000
     286   96  1   0.96400     93.147001171700    -51.901878035400     73.993007345200
     287   96  2  -0.48200     93.221508774400    -51.949314557300     74.535868647500
     288   96  2  -0.48200     93.072493569000    -51.854441513600     73.450146042900
     289   97  1   0.96400     55.227437016800    -59.527613357000    -53.082674452400
     290   97  2  -0.48200     55.316873219300    -60.056359907800    -53.204855673000
     291   97  2  -0.48200     55.138000814300    -58.998866806200    -52.960493231800
     292   98  1   0.96400    -88.751439123200    -45.803021698000    100.950775424000
     293   98  2  -0.48200    -88.723353471700    -45.946242716900    101.481057364458
     294   98  2  -0.48200    -88.779524774800    -45.659800679000    100.420493484000
     295   99  1   0.96400     98.994215067500    -22.966986964700     49.023331377500
     296   99  2  -0.48200     99.379893767500    -22.775304010600     48.681264738500
     297   99  2  -0.48200     98.608536367500    -23.158669918800     49.365398016400
     298  100  1   0.96400    -82.679882620700     97.035238174200     40.478607309000
     299  100  2  -0.48200    -82.431796346900     96.923565883300     40.956605740100
     300  100  2  -0.48200    -82.927968894500     97.146910465100     40.000608877800
     301  101  1   0.96400     64.179774486900    -46.660143484000    -27.227353569400
     302  101  2  -0.48200     63.641923243500    -46.628065340700    -27.337748463700
     303  101  2  -0.48200     64.717625730300    -46.692221627300    -27.116958675200
     304  102  1   0.96400     -5.013550152000     24.059381793700    -58.388859154300
     305  102  2  -0.48200     -4.770624791970     23.612160251700    -58.597378126700
     306  102  2  -0.48200     -5.256475512040     24.506603335600    -58.180340181800
     307  103  1   0.96400     -5.640927391030     53.717465537500    -62.415024595500
     308  103  2  -0.48200     -5.886063356150     53.454990535300    -62.831576191100
     309  103  2  -0.48200     -5.395791425910     53.979940539600    -61.998472999800
     310  104  1   0.96400     58.632666076400     35.966451038600    -78.903762891500
     311  104  2  -0.48200     58.185167708900     35.753731817400    -79.142500705900
     312  104  2  -0.48200     59.080164444000     36.179170259700    -78.665025077200
     313  105  1   0.96400    -65.277794760300      9.823607869120    -93.369184649000
     314  105  2  -0.48200    -65.617344733100     10.098450758500    -93.035018220100
     315  105  2  -0.48200    -64.938244787600      9.548764979780    -93.703351077800
     316  106  1   0.96400    -36.434165582400     31.485910066000    -29.397915484100
     317  106  2  -0.48200    -36.511360230300     32.021289190300    -29.298365599200
     318  106  2  -0.48200    -36.356970934600     30.950530941700    -29.497465369000
     319  107  1   0.96400    -20.100936332000     54.374143298100    -13.166854406100
     320  107  2  -0.48200    -19.579789712100     54.520163090800    -13.068954351400
     321  107  2  -0.48200    -20.622082951900     54.228123505500    -13.264754460700
     322  108  1   0.96400    -77.115058939100    100.162530187000    -10.380870116900
     323  108  2  -0.48200    -76.974753725900    100.025690333000     -9.866973919710
     324  108  2  -0.48200    -77.255364152300    100.299370041000    -10.894766314000
     325  109  1   0.96400     67.022373076200     78.629179064100    -30.544346443900
     326  109  2  -0.48200     66.901025811300     78.869355930400    -31.024023329100
     327  109  2  -0.48200     67.143720341100     78.389002197900    -30.064669558700
     328  110  1   0.96400    -85.008848336000     63.781156341000     -6.648275999630
     329  110  2  -0.48200    -85.045192267800     64.056708848400     -7.122881029370
     330  110  2  -0.48200    -84.972504404100     63.505603833500     -6.173670969890
     331  111  1   0.96400    -46.548326146900    -60.599912828900    -51.748453901000
     332  111  2  -0.48200    -46.352826655900    -60.146673112900    -51.991051734700
     333  111  2  -0.48200    -46.743825637800    -61.053152544800    -51.505856067300
     334  112  1   0.96400     49.254384141100     93.182357890000     -2.545905783640
     335  112  2  -0.48200     49.563615279700     92.898726329900     -2.901474681350
     336  112  2  -0.48200     48.945153002500     93.465989450200     -2.190336885930
     337  113  1   0.96400    -71.812269912900     77.743080763200     70.618678193400
     338  113  2  -0.48200    -71.799308069900     77.468407520100     71.095004342300
     339  113  2  -0.48200    -71.825231756000     78.017754006300     70.142352044500
     340  114  1   0.96400    -85.354673832700     35.041229418500    -48.230111831100