LAMMPS Atom File

         3000 atoms
         2000 bonds
         1000 angles
           0 dihedrals
           0 impropers

           2 atom types
           1 bond types
           1 angle types

         0.0  38.9045130385 xlo xhi
         0.0  38.9045130385 ylo yhi
         0.0  38.9045130385 zlo zhi

Masses

         1    1.0e-20
         2   14.00670

Atoms

       1    1  1   0.96400     -9.646793012630     11.413418490700     -0.799183846578
       2    1  2  -0.48200     -9.401958400910     11.073163267600     -1.155249003640
       3    1  2  -0.48200     -9.891627624340     11.753673713800     -0.443118689516
       4    2  1   0.96400      8.616013725650     -1.053980387110     -2.063119943420
       5    2  2  -0.48200      8.292118369270     -1.430731330100     -2.299023578540
       6    2  2  -0.48200      8.939909082040     -0.677229444110     -1.827216308300
       7    3  1   0.96400    -11.918290935900    -18.756291911000     15.907991267100
       8    3  2  -0.48200    -12.420469808100    -18.965619256000     15.827378346600
       9    3  2  -0.48200    -11.416112063700    -18.546964566100     15.988604187700
      10    4  1   0.96400     15.872027392900    -18.671219341300     -1.104455300890
      11    4  2  -0.48200     15.824725020400    -18.210690475200     -1.401399149140
      12    4  2  -0.48200     15.919329765500    -19.131748207400     -0.807511452636
      13    5  1   0.96400    -10.040965681100    -17.056713193300     -1.697626328680
      14    5  2  -0.48200    -10.491722895500    -16.741571073500     -1.699464283520
      15    5  2  -0.48200     -9.590208466800    -17.371855313100     -1.695788373850
      16    6  1   0.96400     -5.460351845980     13.117951015200    -17.739207924000
      17    6  2  -0.48200     -5.537718663080     13.655089441800    -17.649783731200
      18    6  2  -0.48200     -5.382985028870     12.580812588500    -17.828632116700
      19    7  1   0.96400     16.398455870800      2.101098655630     -1.762873909350
      20    7  2  -0.48200     16.275850521200      2.085016818600     -1.226954789750
      21    7  2  -0.48200     16.521061220500      2.117180492660     -2.298793028950
      22    8  1   0.96400     15.621171496500     -5.777913688010      7.053356010360
      23    8  2  -0.48200     16.078475889600     -5.918201133710      7.324818944500
      24    8  2  -0.48200     15.163867103400     -5.637626242300      6.781893076220
      25    9  1   0.96400      7.073440173980     15.081891254200    -17.480139820400
      26    9  2  -0.48200      6.788109758820     15.357831060600    -17.860854644700
      27    9  2  -0.48200      7.358770589150     14.805951447800    -17.099424996200
      28   10  1   0.96400      6.217310622820     -5.177772397990     18.940332604700
      29   10  2  -0.48200      5.844022494270     -5.250702321470     19.337619905400
      30   10  2  -0.48200      6.590598751370     -5.104842474510     18.543045303900
      31   11  1   0.96400     -1.674324371300     -4.748610344150    -14.020019526900
      32   11  2  -0.48200     -1.619699707530     -4.346891641030    -14.391689043700
      33   11  2  -0.48200     -1.728949035080     -5.150329047270    -13.648350010200
      34   12  1   0.96400     -6.706784330970     -1.539506832610      3.943220978510
      35   12  2  -0.48200     -6.899863572430     -1.035232137870      4.047755368850
      36   12  2  -0.48200     -6.513705089520     -2.043781527350      3.838686588160
      37   13  1   0.96400     -7.708081137030    -17.201091481800     15.221143835500
      38   13  2  -0.48200     -8.221168789310    -17.352915147300     15.348386264200
      39   13  2  -0.48200     -7.194993484750    -17.049267816300     15.093901406800
      40   14  1   0.96400    -15.525658258900     -6.418098627750     12.948849558900
      41   14  2  -0.48200    -15.584729794200     -5.918626535500     13.171421306400
      42   14  2  -0.48200    -15.466586723600     -6.917570720000     12.726277811400
      43   15  1   0.96400     16.237487593900     17.755538526000     17.872147263900
      44   15  2  -0.48200     16.550136041800     17.815895981700     17.423696680700
      45   15  2  -0.48200     15.924839146100     17.695181070400     18.320597847100
      46   16  1   0.96400      8.654031499720     14.819911529500     13.223910629600
      47   16  2  -0.48200      8.273020961800     14.435616459700     13.322136233600
      48   16  2  -0.48200      9.035042037630     15.204206599400     13.125685025700
      49   17  1   0.96400     18.200546534600     17.499217840000      4.145762377710
      50   17  2  -0.48200     18.156830252600     17.617202975400      3.610348150660
      51   17  2  -0.48200     18.244262816600     17.381232704600      4.681176604750
      52   18  1   0.96400     -8.929436639160     -3.878195322900      9.720477821890
      53   18  2  -0.48200     -8.900716107160     -4.130161489530     10.208523088100
      54   18  2  -0.48200     -8.958157171160     -3.626229156260      9.232432555640
      55   19  1   0.96400      4.286132240370     -4.834647475330     17.058843798300
      56   19  2  -0.48200      4.571971098980     -5.122256924920     16.687256727200
      57   19  2  -0.48200      4.000293381750     -4.547038025740     17.430430869400
      58   20  1   0.96400    -11.097038166200     -1.100498139500    -17.403710438800
      59   20  2  -0.48200    -11.566030557400     -0.878915979450    -17.220823907300
      60   20  2  -0.48200    -10.628045775100     -1.322080299560    -17.586596970300
      61   21  1   0.96400     12.347617534400    -16.933727175400      7.481482992110
      62   21  2  -0.48200     11.832432374200    -17.043584468600      7.323319703680
      63   21  2  -0.48200     12.862802694600    -16.823869882300      7.639646280530
      64   22  1   0.96400      3.320817553120     -6.529310234890     13.168999780600
      65   22  2  -0.48200      3.801209582140     -6.630850848380     12.921183311700
      66   22  2  -0.48200      2.840425524100     -6.427769621390     13.416816249500
      67   23  1   0.96400     -6.831082791480     -6.265305009500      5.266562241100
      68   23  2  -0.48200     -7.195717564390     -6.656451001080      5.137929835960
      69   23  2  -0.48200     -6.466448018560     -5.874159017920      5.395194646240
      70   24  1   0.96400      0.055156053519     -6.319742525400     17.532633740200
      71   24  2  -0.48200      0.144524400667     -5.795201264370     17.671809039800
      72   24  2  -0.48200     -0.034212293629     -6.844283786430     17.393458440700
      73   25  1   0.96400    -17.651529024700      2.108139901780    -14.151192473500
      74   25  2  -0.48200    -17.794539399800      1.843598862470    -13.690686153100
      75   25  2  -0.48200    -17.508518649600      2.372680941090    -14.611698793900
      76   26  1   0.96400    -17.523021634600     17.980486837700     -0.123614816882
      77   26  2  -0.48200    -17.669302154400     18.304892851100     -0.542974743450
      78   26  2  -0.48200    -17.376741114900     17.656080824300      0.295745109687
      79   27  1   0.96400     -7.996589998500     -9.350436385470      9.356701355890
      80   27  2  -0.48200     -8.224929878650     -9.569743900500      8.906962417190
      81   27  2  -0.48200     -7.768250118350     -9.131128870440      9.806440294590
      82   28  1   0.96400     11.788962468000     -2.315966662790      8.533149566130
      83   28  2  -0.48200     11.534805991500     -1.922871207690      8.821906295270
      84   28  2  -0.48200     12.043118944500     -2.709062117900      8.244392836980
      85   29  1   0.96400     15.983926511900    -14.464612233800     -9.769177880890
      86   29  2  -0.48200     15.672488953300    -14.902388270600     -9.651454524320
      87   29  2  -0.48200     16.295364070600    -14.026836197000     -9.886901237460
      88   30  1   0.96400    -10.949597978800      2.152606235920      4.924768933320
      89   30  2  -0.48200    -11.439032040300      2.246628744740      5.157393238150
      90   30  2  -0.48200    -10.460163917200      2.058583727090      4.692144628490
      91   31  1   0.96400     11.966476571600     -7.473709733490    -14.167517856300
      92   31  2  -0.48200     12.198511645000     -7.862858084800    -13.855711369200
      93   31  2  -0.48200     11.734441498300     -7.084561382170    -14.479324343400
      94   32  1   0.96400    -13.283203988600      5.027317399880    -14.347247426100
      95   32  2  -0.48200    -13.688400905500      5.248524270950    -14.048277563700
      96   32  2  -0.48200    -12.878007071600      4.806110528800    -14.646217288600
      97   33  1   0.96400     14.182519931200     17.767823681200      9.015147464340
      98   33  2  -0.48200     14.521762517200     17.350184501900      9.129129847890
      99   33  2  -0.48200     13.843277345200     18.185462860500      8.901165080800
     100   34  1   0.96400    -12.177506283200     -4.691123972820      9.033566663970
     101   34  2  -0.48200    -12.229143406400     -5.212358260970      9.201341585700
     102   34  2  -0.48200    -12.125869160000     -4.169889684660      8.865791742230
     103   35  1   0.96400      9.624718051860    -18.973898976800     15.835573016100
     104   35  2  -0.48200      9.440313154850    -18.817008441700     15.341730739700
     105   35  2  -0.48200      9.809122948880    -19.130789511800     16.329415292500
     106   36  1   0.96400      3.846001834070     -6.294031515710      8.487836179200
     107   36  2  -0.48200      3.639355764920     -6.101539121180      8.015878469070
     108   36  2  -0.48200      4.052647903220     -6.486523910240      8.959793889330
     109   37  1   0.96400     13.874963984000    -18.574668953200    -15.801231568000
     110   37  2  -0.48200     13.946783466000    -18.381784598700    -16.311268417500
     111   37  2  -0.48200     13.803144502100    -18.767553307700    -15.291194718600
     112   38  1   0.96400     -8.163407977280    -15.648759477500      7.346182891450
     113   38  2  -0.48200     -8.310309516530    -15.343696434000      6.912758760550
     114   38  2  -0.48200     -8.016506438030    -15.953822521000      7.779607022340
     115   39  1   0.96400     -7.218611973000     -7.642287767930     18.501467696000
     116   39  2  -0.48200     -7.575804263180     -7.517669878230     18.102238376700
     117   39  2  -0.48200     -6.861419682830     -7.766905657630     18.900697015300
     118   40  1   0.96400     14.033935742700    -13.335593551600    -12.228696997600
     119   40  2  -0.48200     14.020545826200    -13.504596446100    -11.705477414800
     120   40  2  -0.48200     14.047325659300    -13.166590657100    -12.751916580300
     121   41  1   0.96400     -0.803217689730     17.941054615300    -17.085404337600
     122   41  2  -0.48200     -0.766483086751     18.246427328100    -16.629445923700
     123   41  2  -0.48200     -0.839952292708     17.635681902600    -17.541362751600
     124   42  1   0.96400      3.284583389780     -1.063103118180     -1.482677992420
     125   42  2  -0.48200      3.597235035040     -1.386194584390     -1.165880181230
     126   42  2  -0.48200      2.971931744510     -0.740011651970     -1.799475803610
     127   43  1   0.96400    -18.658087551600     -5.380632598840    -18.729438006600
     128   43  2  -0.48200    -18.870063897200     -4.876897126680    -18.667659345100
     129   43  2  -0.48200    -18.446111206100     -5.884368071000    -18.791216668100
     130   44  1   0.96400    -10.603600461900     16.140730874000     -1.819937892030
     131   44  2  -0.48200    -10.703150700300     15.768183738900     -1.427766523660
     132   44  2  -0.48200    -10.504050223600     16.513278009100     -2.212109260390
     133   45  1   0.96400     16.325096427000     11.367318025500      1.781525968410
     134   45  2  -0.48200     16.264710131800     11.214857636800      1.256540896960
     135   45  2  -0.48200     16.385482722200     11.519778414100      2.306511039870
     136   46  1   0.96400    -10.218736601800     -8.927141194160    -19.194426612700
     137   46  2  -0.48200    -10.563365088500     -8.564690030420    -19.423250475200
     138   46  2  -0.48200     -9.874108115040     -9.289592357900    -18.965602750300
     139   47  1   0.96400     -3.711576966410     18.304453723300     -5.262849525010
     140   47  2  -0.48200     -3.950396775270     18.025473996900     -5.672282561240
     141   47  2  -0.48200     -3.472757157550     18.583433449700     -4.853416488780
     142   48  1   0.96400     10.924597293800     10.551592535900      5.772070234250
     143   48  2  -0.48200     11.246508423700     10.766414226700      6.162870522880
     144   48  2  -0.48200     10.602686163800     10.336770845100      5.381269945610
     145   49  1   0.96400     -7.390125376330     -6.451358979460     -6.980030247010
     146   49  2  -0.48200     -7.818087114490     -6.561551245140     -6.652606339430
     147   49  2  -0.48200     -6.962163638170     -6.341166713790     -7.307454154600
     148   50  1   0.96400      0.797747428510     -2.099233253430    -12.284005466100
     149   50  2  -0.48200      1.322486817010     -1.934599823700    -12.277341535700
     150   50  2  -0.48200      0.273008040006     -2.263866683160    -12.290669396400
     151   51  1   0.96400    -12.890372167700     18.356585213200     -8.517688679890
     152   51  2  -0.48200    -12.344129982900     18.324798238100     -8.461929699990
     153   51  2  -0.48200    -13.436614352400     18.388372188200     -8.573447659780
     154   52  1   0.96400     -1.452161484350      6.848905756150     11.714486038900
     155   52  2  -0.48200     -1.227103924140      6.347180599180     11.725484286900
     156   52  2  -0.48200     -1.677219044560      7.350630913120     11.703487790900
     157   53  1   0.96400      8.828931033120      3.946121074380     17.051227318400
     158   53  2  -0.48200      9.169260998260      3.582960788720     16.817154420000
     159   53  2  -0.48200      8.488601067990      4.309281360050     17.285300216700
     160   54  1   0.96400      1.864444016910    -10.576419737000     -5.534075849540
     161   54  2  -0.48200      1.334715909580    -10.723544507700     -5.518505552520
     162   54  2  -0.48200      2.394172124240    -10.429294966300     -5.549646146560
     163   55  1   0.96400     -5.697131298070      4.069914680020     -1.519996665770
     164   55  2  -0.48200     -6.035165122060      4.199754764000     -1.933970923950
     165   55  2  -0.48200     -5.359097474070      3.940074596050     -1.106022407600
     166   56  1   0.96400     -3.585605075620    -12.190901625200     -2.778534583080
     167   56  2  -0.48200     -3.113616778920    -12.021250552300     -3.004245817260
     168   56  2  -0.48200     -4.057593372330    -12.360552698100     -2.552823348890
     169   57  1   0.96400    -17.767579411600     -6.119597845260    -14.801715285100
     170   57  2  -0.48200    -18.136372395700     -6.510024436700    -14.920285144700
     171   57  2  -0.48200    -17.398786427600     -5.729171253820    -14.683145425400
     172   58  1   0.96400     -6.042733101720     -1.016363209810     -6.477642524810
     173   58  2  -0.48200     -5.931861616730     -1.074035506480     -5.942029399490
     174   58  2  -0.48200     -6.153604586700     -0.958690913132     -7.013255650120
     175   59  1   0.96400    -10.162168600500      2.548873340350     -5.644538748940
     176   59  2  -0.48200    -10.110759109800      2.238852922850     -6.095919303470
     177   59  2  -0.48200    -10.213578091100      2.858893757850     -5.193158194420
     178   60  1   0.96400     -8.526372076580      8.161684905610      7.486217384010
     179   60  2  -0.48200     -8.858366750230      8.596405076580      7.543644813140
     180   60  2  -0.48200     -8.194377402930      7.726964734630      7.428789954880
     181   61  1   0.96400    -18.464536121900     -9.327889536280      4.230375933510
     182   61  2  -0.48200    -18.263185413700     -9.406337122710      3.724605364500
     183   61  2  -0.48200    -18.665886830100     -9.249441949850      4.736146502530
     184   62  1   0.96400      3.069836433860      6.584781132780     -1.588802180970
     185   62  2  -0.48200      3.506743082900      6.791622543330     -1.326448963140
     186   62  2  -0.48200      2.632929784830      6.377939722230     -1.851155398800
     187   63  1   0.96400     -8.872023141520     11.250811555500     -4.905479386310
     188   63  2  -0.48200     -9.127147043740     11.537418807300     -5.299520091950
     189   63  2  -0.48200     -8.616899239300     10.964204303600     -4.511438680670
     190   64  1   0.96400     -7.966707429240      2.647777807000    -17.668972996500
     191   64  2  -0.48200     -8.404546854640      2.979659755080    -17.643458096900
     192   64  2  -0.48200     -7.528868003840      2.315895858920    -17.694487896100
     193   65  1   0.96400     16.422221913000     19.004968051400    -17.200953825600
     194   65  2  -0.48200     16.728644746600     19.112123260400    -16.756968681400
     195   65  2  -0.48200     16.115799079400     18.897812842300    -17.644938969700
     196   66  1   0.96400      3.876182337110     -2.280371317610      6.443980367430
     197   66  2  -0.48200      3.429132687260     -2.042369534060      6.658460580040
     198   66  2  -0.48200      4.323231986950     -2.518373101160      6.229500154820
     199   67  1   0.96400     -1.090491421810     17.181354299300     11.299717511100
     200   67  2  -0.48200     -1.566162739700     16.947997471600     11.152132321200
     201   67  2  -0.48200     -0.614820103915     17.414711127000     11.447302701100
     202   68  1   0.96400      4.079774592170     -2.930334020890      1.697859455830
     203   68  2  -0.48200      3.714258376800     -3.062961740040      2.086842468840
     204   68  2  -0.48200      4.445290807550     -2.797706301740      1.308876442820
     205   69  1   0.96400    -10.893516351700     -4.967654529260     -6.137587572800
     206   69  2  -0.48200    -11.335789237700     -4.960372218710     -6.464454001580
     207   69  2  -0.48200    -10.451243465700     -4.974936839810     -5.810721144030
     208   70  1   0.96400      8.797685239950    -14.735106787800    -18.120550806900
     209   70  2  -0.48200      8.563557668030    -14.540493319000    -18.578600889100
     210   70  2  -0.48200      9.031812811880    -14.929720256600    -17.662500724700
     211   71  1   0.96400    -12.665573405800      1.952865324050    -13.804834367400
     212   71  2  -0.48200    -12.536329691700      2.357097804740    -13.454988452900
     213   71  2  -0.48200    -12.794817119900      1.548632843360    -14.154680281900
     214   72  1   0.96400     -0.060798914434    -11.709158518400     -9.314726915970
     215   72  2  -0.48200     -0.543440081059    -11.673720022700     -9.576072697080
     216   72  2  -0.48200      0.421842252190    -11.744597014100     -9.053381134860
     217   73  1   0.96400     12.775848472200      0.425476572380     -4.872354589740
     218   73  2  -0.48200     12.772007490400      0.345462867727     -5.416489732810
     219   73  2  -0.48200     12.779689454000      0.505490277033     -4.328219446670
     220   74  1   0.96400     -5.909595337010    -13.307564443100    -14.363535057000
     221   74  2  -0.48200     -5.711763498890    -13.523032440800    -14.829299059300
     222   74  2  -0.48200     -6.107427175120    -13.092096445300    -13.897771054800
     223   75  1   0.96400     14.471157288900     -3.449966941480    -16.030192184100
     224   75  2  -0.48200     14.289112753200     -3.827345399110    -15.673898363300
     225   75  2  -0.48200     14.653201824500     -3.072588483860    -16.386486005000
     226   76  1   0.96400     -9.826071937740     13.104982712600     -8.006137997040
     227   76  2  -0.48200     -9.307751127160     12.921016674600     -8.006322855140
     228   76  2  -0.48200    -10.344392748300     13.288948750700     -8.005953138950
     229   77  1   0.96400     16.564629552000      8.552725522780     -1.306264872440
     230   77  2  -0.48200     16.885550632900      8.351379155450     -1.704974416070
     231   77  2  -0.48200     16.243708471100      8.754071890100     -0.907555328821
     232   78  1   0.96400     15.382567700600    -15.602041748600     19.287825614300
     233   78  2  -0.48200     15.134287692200    -15.761849713400     19.751849807379
     234   78  2  -0.48200     15.630847709000    -15.442233783700     18.823801421100
     235   79  1   0.96400    -13.151577410800    -17.427631793100    -15.286448281000
     236   79  2  -0.48200    -13.280422105100    -16.893481799700    -15.310590139100
     237   79  2  -0.48200    -13.022732716500    -17.961781786500    -15.262306422900
     238   80  1   0.96400    -14.511045847200    -15.382741422200     12.597352461100
     239   80  2  -0.48200    -14.018269707900    -15.568416270800     12.438618320900
     240   80  2  -0.48200    -15.003821986400    -15.197066573700     12.756086601200
     241   81  1   0.96400    -19.141643498900     -5.881362527280     13.003507127800
     242   81  2  -0.48200    -18.778356777300     -6.184961883890     12.723596090800
     243   81  2  -0.48200    -19.504930220479     -5.577763170670     13.283418164700
     244   82  1   0.96400     10.405258299600    -11.284087591500     11.295775691600
     245   82  2  -0.48200     10.658473117600    -11.245949616700     10.809023443700
     246   82  2  -0.48200     10.152043481600    -11.322225566300     11.782527939500
     247   83  1   0.96400      8.830588754960     -8.854451530270    -13.139223797800
     248   83  2  -0.48200      9.143373737140     -9.216726712660    -12.868258399400
     249   83  2  -0.48200      8.517803772790     -8.492176347880    -13.410189196300
     250   84  1   0.96400      3.591106481960     13.889736052300     -5.961515493140
     251   84  2  -0.48200      3.233715575170     13.479871027600     -5.879160157940
     252   84  2  -0.48200      3.948497388760     14.299601077100     -6.043870828340
     253   85  1   0.96400     -4.732996778450    -17.887305663000     11.260875077000
     254   85  2  -0.48200     -4.521451839870    -17.381980656400     11.211932491000
     255   85  2  -0.48200     -4.944541717020    -18.392630669500     11.309817663000
     256   86  1   0.96400      2.083323354680    -10.057719921300     15.215898020100
     257   86  2  -0.48200      2.292658312220    -10.389374713600     15.601493629900
     258   86  2  -0.48200      1.873988397140     -9.726065128930     14.830302410400
     259   87  1   0.96400     -3.184071111080    -16.823635094300      5.107413920430
     260   87  2  -0.48200     -2.740780378470    -16.709016738400      4.802691163020
     261   87  2  -0.48200     -3.627361843680    -16.938253450100      5.412136677840
     262   88  1   0.96400    -16.667621744100    -10.423374710200     18.114002453600
     263   88  2  -0.48200    -17.083936549600    -10.674333233300     18.371299562800
     264   88  2  -0.48200    -16.251306938600    -10.172416187100     17.856705344300
     265   89  1   0.96400      7.672204452270     10.021010020500      7.782760427250
     266   89  2  -0.48200      8.216043069670     10.095709965300      7.816811513350
     267   89  2  -0.48200      7.128365834860      9.946310075730      7.748709341160
     268   90  1   0.96400     10.116697936700      4.887586961260      0.901567321196
     269   90  2  -0.48200     10.010006498900      4.784322228750      0.371988873629
     270   90  2  -0.48200     10.223389374500      4.990851693760      1.431145768760
     271   91  1   0.96400     -8.740535825030     -9.274196606020     -2.488884650410
     272   91  2  -0.48200     -8.859578933080     -9.253377552210     -1.952325888090
     273   91  2  -0.48200     -8.621492716970     -9.295015659820     -3.025443412730
     274   92  1   0.96400     19.325302126400     -9.161117828680     12.950060449900
     275   92  2  -0.48200     19.737295890979     -9.146218341230     13.314119707800
     276   92  2  -0.48200     18.913308361900     -9.176017316130     12.586001192100
     277   93  1   0.96400     -9.756753409200     -4.575972691260     15.972695192200
     278   93  2  -0.48200     -9.433886474370     -4.586650290490     15.527562704800
     279   93  2  -0.48200    -10.079620344000     -4.565295092030     16.417827679500
     280   94  1   0.96400     11.178920823900    -12.454155372000    -10.731947612500
     281   94  2  -0.48200     10.915876899200    -12.881642555900    -10.956808906100
     282   94  2  -0.48200     11.441964748600    -12.026668188200    -10.507086319000
     283   95  1   0.96400     19.306148159700     -3.102525611810     10.626279737400
     284   95  2  -0.48200     19.380544996200     -3.537239828870     10.954896018500
     285   95  2  -0.48200     19.231751323100     -2.667811394750     10.297663456300
     286   96  1   0.96400    -17.270444941400     16.716171427100      8.800030925680
     287   96  2  -0.48200    -17.405545997400     17.190704180000      8.556995185270
     288   96  2  -0.48200    -17.135343885400     16.241638674300      9.043066666090
     289   97  1   0.96400     11.315634357700    -13.721395195300     -3.506910448750
     290   97  2  -0.48200     11.305631802900    -13.582681469100     -4.039036797530
     291   97  2  -0.48200     11.325636912600    -13.860108921500     -2.974784099970
     292   98  1   0.96400      3.972649486950      4.148418393430     -5.651300125850
     293   98  2  -0.48200      3.921909552660      3.945500545540     -5.142625567730
     294   98  2  -0.48200      4.023389421230      4.351336241310     -6.159974683970
     295   99  1   0.96400     -1.514540361740     10.930656437500    -10.912338534900
     296   99  2  -0.48200     -1.838327446190     10.922613297900    -10.467819433200
     297   99  2  -0.48200     -1.190753277290     10.938699577200    -11.356857636700
     298  100  1   0.96400     13.283266576100      7.439038337460    -16.251735074900
     299  100  2  -0.48200     13.081009755000      6.931477340840    -16.314774848200
     300  100  2  -0.48200     13.485523397200      7.946599334090    -16.188695301600
     301  101  1   0.96400    -11.873155978800      2.573937820570    -17.503172032100
     302  101  2  -0.48200    -12.227814679500      2.822333721780    -17.842313127100
     303  101  2  -0.48200    -11.518497278200      2.325541919370    -17.164030937100
     304  102  1   0.96400     -9.083117112370      6.645083162180     -2.938621990910
     305  102  2  -0.48200     -8.936534124520      6.291824905150     -2.543372662620
     306  102  2  -0.48200     -9.229700100220      6.998341419210     -3.333871319210
     307  103  1   0.96400     -4.565167377840     11.305246953100     -1.948901968140
     308  103  2  -0.48200     -4.160586761340     11.674552129400     -1.899625082400
     309  103  2  -0.48200     -4.969747994340     10.935941776700     -1.998178853880
     310  104  1   0.96400    -14.216470504000    -19.225229529300     -1.490942669860
     311  104  2  -0.48200    -14.551569192300    -19.582194795379     -1.240373980910
     312  104  2  -0.48200    -13.881371815700    -18.868264263200     -1.741511358800
     313  105  1   0.96400    -17.260113462800     15.107342930000     -1.753187972780
     314  105  2  -0.48200    -17.042748326700     15.336128345800     -2.203642888510
     315  105  2  -0.48200    -17.477478599000     14.878557514200     -1.302733057060
     316  106  1   0.96400     -8.437689612690    -11.949653490600     -8.033024985860
     317  106  2  -0.48200     -8.653681235730    -12.453123724100     -7.984390196640
     318  106  2  -0.48200     -8.221697989650    -11.446183257000     -8.081659775080
     319  107  1   0.96400     11.841983622400    -16.977985965500      4.278238495450
     320  107  2  -0.48200     12.345327251700    -16.769819363200      4.202002961890
     321  107  2  -0.48200     11.338639993200    -17.186152567800      4.354474029000
     322  108  1   0.96400    -12.705893013900     17.880959775000     10.841872423300
     323  108  2  -0.48200    -13.013049197400     17.909568584200     11.297214728500
     324  108  2  -0.48200    -12.398736830400     17.852350965700     10.386530118000
     325  109  1   0.96400    -17.810045279400      5.721871278470     -8.985605433570
     326  109  2  -0.48200    -17.931392544300      5.962048144710     -9.465282318810
     327  109  2  -0.48200    -17.688698014500      5.481694412240     -8.505928548340
     328  110  1   0.96400    -10.651578838500      0.774068715772     12.595300671600
     329  110  2  -0.48200    -10.900594870600      0.285682705440     12.550914630200
     330  110  2  -0.48200    -10.402562806400      1.262454726110     12.639686713000
     331  111  1   0.96400    -17.563372287200    -13.216847158400     16.201316339900
     332  111  2  -0.48200    -18.042666751400    -12.947078473100     16.200022910700
     333  111  2  -0.48200    -17.084077822900    -13.486615843700     16.202609769200
     334  112  1   0.96400    -17.916053397400    -16.990994797100     -7.930506453570
     335  112  2  -0.48200    -18.322134513000    -17.301279481000     -8.133783462780
     336  112  2  -0.48200    -17.509972281800    -16.680710113200     -7.727229444350
     337  113  1   0.96400     17.578251858200     11.647474669000     -8.066295534460
     338  113  2  -0.48200     17.123847216600     11.800401237800     -8.335794859660
     339  113  2  -0.48200     18.032656499700     11.494548100200     -7.796796209260
     340  114  1   0.96400      9.522284016610    -10.418937164800    -17.333502877200