LAMMPS Atom File

         3000 atoms
         2000 bonds
         1000 angles
           0 dihedrals
           0 impropers

           2 atom types
           1 bond types
           1 angle types

         0.0  404.982586949 xlo xhi
         0.0  404.982586949 ylo yhi
         0.0  404.982586949 zlo zhi

Masses

         1    1.0e-20
         2   14.00670

Atoms

       1    1  1   0.96400    -65.096551412500    -94.440306115600     39.902682404900
       2    1  2  -0.48200    -65.050160161000    -94.326595305900     40.438795922300
       3    1  2  -0.48200    -65.142942664000    -94.554016925400     39.366568887500
       4    2  1   0.96400    176.078703622000    -91.061603782300   -156.262736114000
       5    2  2  -0.48200    175.633711143000    -91.067797062200   -156.585913058000
       6    2  2  -0.48200    176.523696100000    -91.055410502300   -155.939559169000
       7    3  1   0.96400    191.508745140000     75.363439201100   -149.514526988000
       8    3  2  -0.48200    191.736518581000     75.287053716700   -149.019769960000
       9    3  2  -0.48200    191.280971698000     75.439824685400   -150.009284017000
      10    4  1   0.96400    190.976285206000    -24.257269430700    197.832070367000
      11    4  2  -0.48200    191.281624198000    -24.318674515800    198.285388705000
      12    4  2  -0.48200    190.670946214000    -24.195864345700    197.378752028000
      13    5  1   0.96400      2.635765959600     68.338064547000    107.413523103000
      14    5  2  -0.48200      2.424120480410     68.616653312800    106.989147691000
      15    5  2  -0.48200      2.847411438790     68.059475781200    107.837898515000
      16    6  1   0.96400    -27.703919861900     15.361765905400    -15.057881999700
      17    6  2  -0.48200    -27.502972447400     14.866447584000    -15.187419242000
      18    6  2  -0.48200    -27.904867276400     15.857084226700    -14.928344757400
      19    7  1   0.96400    186.505560629000   -101.878275137000   -155.850506517000
      20    7  2  -0.48200    186.507784920000   -101.424390082000   -156.161124304000
      21    7  2  -0.48200    186.503336338000   -102.332160191000   -155.539888729000
      22    8  1   0.96400    -63.586417286100     98.025527539000     41.978116388900
      23    8  2  -0.48200    -63.504250330100     98.526683020500     42.189284034800
      24    8  2  -0.48200    -63.668584242200     97.524372057500     41.766948743000
      25    9  1   0.96400     34.292678315300     63.651413908700    -36.268129134900
      26    9  2  -0.48200     34.122911229800     64.174089145100    -36.245999202100
      27    9  2  -0.48200     34.462445400800     63.128738672300    -36.290259067600
      28   10  1   0.96400    119.986900344000    -26.311953143400    161.718236514000
      29   10  2  -0.48200    119.935851893000    -25.782233197900    161.579345064000
      30   10  2  -0.48200    120.037948795000    -26.841673088900    161.857127965000
      31   11  1   0.96400     84.469630173400   -149.034639491000   -157.268487515000
      32   11  2  -0.48200     84.510353595100   -149.378294164000   -156.841002932000
      33   11  2  -0.48200     84.428906751800   -148.690984819000   -157.695972098000
      34   12  1   0.96400    -73.101180827700   -189.495775115000     11.047440585500
      35   12  2  -0.48200    -73.095524678700   -189.846323995000     10.623667662200
      36   12  2  -0.48200    -73.106836976600   -189.145226235000     11.471213508800
      37   13  1   0.96400    126.799885692000   -103.111500795000    155.770327962000
      38   13  2  -0.48200    126.736633814000   -102.816512212000    156.230198527000
      39   13  2  -0.48200    126.863137569000   -103.406489378000    155.310457398000
      40   14  1   0.96400     91.169219419600    -50.598093894400   -147.052298575000
      41   14  2  -0.48200     91.043007279700    -50.982794556100   -147.424556411000
      42   14  2  -0.48200     91.295431559500    -50.213393232600   -146.680040738000
      43   15  1   0.96400    -73.529426323600    -28.538233036100     93.266135360300
      44   15  2  -0.48200    -73.144089884200    -28.501645626800     92.875396073900
      45   15  2  -0.48200    -73.914762763100    -28.574820445300     93.656874646700
      46   16  1   0.96400    -98.211179562400   -105.264913167000    -53.940900472700
      47   16  2  -0.48200    -98.398780907400   -105.516849252000    -53.489420745400
      48   16  2  -0.48200    -98.023578217300   -105.012977081000    -54.392380200000
      49   17  1   0.96400    114.817435664000   -123.073937755000   -106.810403365000
      50   17  2  -0.48200    115.040895729000   -123.234105488000   -106.334050663000
      51   17  2  -0.48200    114.593975599000   -122.913770023000   -107.286756067000
      52   18  1   0.96400   -133.476548106000     19.152444907700   -183.750941015000
      53   18  2  -0.48200   -133.163884475000     18.780906035400   -183.492676964000
      54   18  2  -0.48200   -133.789211737000     19.523983780000   -184.009205066000
      55   19  1   0.96400    100.168406979000    182.958042423000     -3.815634774500
      56   19  2  -0.48200    100.466829183000    182.497566961000     -3.853138600640
      57   19  2  -0.48200     99.869984775500    183.418517886000     -3.778130948350
      58   20  1   0.96400   -170.755140707000     71.275068991500    -94.559149013600
      59   20  2  -0.48200   -171.003823663000     70.974471461700    -94.171466266200
      60   20  2  -0.48200   -170.506457751000     71.575666521300    -94.946831760900
      61   21  1   0.96400    103.471194277000   -120.980242126000   -193.818977450000
      62   21  2  -0.48200    103.846676933000   -121.156888945000   -194.179960382000
      63   21  2  -0.48200    103.095711621000   -120.803595308000   -193.457994519000
      64   22  1   0.96400    -73.274518028100    185.188376853000    -85.691767562600
      65   22  2  -0.48200    -73.629272184700    185.488702256000    -85.985798412000
      66   22  2  -0.48200    -72.919763871500    184.888051449000    -85.397736713200
      67   23  1   0.96400   -174.194239049000     99.138143125400    170.929774772000
      68   23  2  -0.48200   -174.073129824000     99.151501415900    170.393440817000
      69   23  2  -0.48200   -174.315348274000     99.124784834800    171.466108728000
      70   24  1   0.96400    -62.621979271600   -200.274283856000      8.629440332630
      71   24  2  -0.48200    -62.428417324400   -200.788304429000      8.600863713360
      72   24  2  -0.48200    -62.815541218700   -199.760263283000      8.658016951910
      73   25  1   0.96400     18.090159695100   -160.315353379000     37.479547503200
      74   25  2  -0.48200     17.816363129500   -160.695359380000     37.767871765800
      75   25  2  -0.48200     18.363956260700   -159.935347379000     37.191223240700
      76   26  1   0.96400    201.310415835000   -171.892438954000      9.532599280560
      77   26  2  -0.48200    201.269182673000   -172.391465675000      9.305064318610
      78   26  2  -0.48200    201.351648997000   -171.393412234000      9.760134242500
      79   27  1   0.96400     41.172229007100   -118.991514613000    -93.349495566300
      80   27  2  -0.48200     40.998171512100   -118.838074908000    -93.848154011800
      81   27  2  -0.48200     41.346286502200   -119.144954319000    -92.850837120800
      82   28  1   0.96400     80.603153379000   -177.425656165000     90.428342215200
      83   28  2  -0.48200     80.069077320400   -177.405234227000     90.558133232100
      84   28  2  -0.48200     81.137229437700   -177.446078103000     90.298551198300
      85   29  1   0.96400     88.065086629000   -139.285431372000   -168.737178217000
      86   29  2  -0.48200     88.283783744900   -139.091372500000   -169.203024463000
      87   29  2  -0.48200     87.846389513100   -139.479490245000   -168.271331970000
      88   30  1   0.96400    -49.464710644200    -89.099053014600    -73.512323478900
      89   30  2  -0.48200    -49.918957307600    -89.409019172100    -73.521320701700
      90   30  2  -0.48200    -49.010463980800    -88.789086857100    -73.503326256100
      91   31  1   0.96400     57.813492289300      4.647356210100    127.645048815000
      92   31  2  -0.48200     57.394091879300      4.636395992490    128.000693539000
      93   31  2  -0.48200     58.232892699300      4.658316427710    127.289404091000
      94   32  1   0.96400   -200.719336255000   -138.844269866000     82.457339293100
      95   32  2  -0.48200   -200.875584947000   -138.810807829000     81.931063093400
      96   32  2  -0.48200   -200.563087563000   -138.877731903000     82.983615492800
      97   33  1   0.96400    102.708292894000    165.663362480000    168.320843879000
      98   33  2  -0.48200    102.984200251000    165.188267907000    168.295148016000
      99   33  2  -0.48200    102.432385536000    166.138457052000    168.346539741000
     100   34  1   0.96400     62.939210973600    -14.668546877500     21.451265670200
     101   34  2  -0.48200     62.908233868300    -14.214503797000     21.760110777000
     102   34  2  -0.48200     62.970188078900    -15.122589958000     21.142420563300
     103   35  1   0.96400     97.138624661400    113.355465002000   -148.360969389000
     104   35  2  -0.48200     96.947206159800    113.060541760000   -148.783910565000
     105   35  2  -0.48200     97.330043163000    113.650388243000   -147.938028212000
     106   36  1   0.96400    118.071506225000   -133.207072114000    -95.880569868700
     107   36  2  -0.48200    117.765838036000   -132.777560768000    -96.037372169300
     108   36  2  -0.48200    118.377174414000   -133.636583461000    -95.723767568100
     109   37  1   0.96400    191.177643888000   -118.379642485000    178.513860508000
     110   37  2  -0.48200    191.343969665000   -118.298101842000    179.031728116000
     111   37  2  -0.48200    191.011318111000   -118.461183128000    177.995992900000
     112   38  1   0.96400    131.201451268000    -31.895280316300   -199.376824499000
     113   38  2  -0.48200    131.410793432000    -32.118148840500   -199.833995670000
     114   38  2  -0.48200    130.992109104000    -31.672411792100   -198.919653328000
     115   39  1   0.96400    -69.571931085200    177.360532676000    -64.580948852400
     116   39  2  -0.48200    -70.004539549100    177.393878924000    -64.918939894800
     117   39  2  -0.48200    -69.139322621300    177.327186428000    -64.242957810100
     118   40  1   0.96400   -128.922511794000    -34.963515855000    188.110436995000
     119   40  2  -0.48200   -129.015688061000    -34.422097684800    188.136600868000
     120   40  2  -0.48200   -128.829335526000    -35.504934025100    188.084273122000
     121   41  1   0.96400   -110.423942691000     54.416162294000   -180.659590394000
     122   41  2  -0.48200   -110.030698427000     54.139139278300   -180.392912316000
     123   41  2  -0.48200   -110.817186955000     54.693185309700   -180.926268473000
     124   42  1   0.96400      3.618524292060   -143.528317524000    -70.406280838800
     125   42  2  -0.48200      4.123991237680   -143.744007511000    -70.384349208000
     126   42  2  -0.48200      3.113057346440   -143.312627537000    -70.428212469600
     127   43  1   0.96400     91.552906635000    109.850227132000   -196.481362262000
     128   43  2  -0.48200     91.078812570300    110.127341603000   -196.512060598000
     129   43  2  -0.48200     92.027000699800    109.573112662000   -196.450663925000
     130   44  1   0.96400    153.108424174000   -195.976047370000    -19.997297945900
     131   44  2  -0.48200    152.813730183000   -196.144281493000    -20.430140563900
     132   44  2  -0.48200    153.403118164000   -195.807813246000    -19.564455328000
     133   45  1   0.96400    124.879909186000    -33.924397431100   -185.502758398000
     134   45  2  -0.48200    124.571532800000    -33.839447507900   -185.055335204000
     135   45  2  -0.48200    125.188285573000    -34.009347354400   -185.950181592000
     136   46  1   0.96400   -197.192474283000    -53.727270595800   -141.239380638000
     137   46  2  -0.48200   -197.615971891000    -54.074597824600   -141.189245096000
     138   46  2  -0.48200   -196.768976675000    -53.379943367000   -141.289516180000
     139   47  1   0.96400   -107.624899367000   -102.899771815000     14.273463921900
     140   47  2  -0.48200   -108.133581034000   -102.735079424000     14.144547754700
     141   47  2  -0.48200   -107.116217701000   -103.064464206000     14.402380089000
     142   48  1   0.96400   -195.802744247000    -76.908598973700     52.912148333400
     143   48  2  -0.48200   -196.337061878000    -76.778387318700     52.919190609900
     144   48  2  -0.48200   -195.268426615000    -77.038810628700     52.905106056900
     145   49  1   0.96400     93.557248028300    180.363675557000   -109.843186343000
     146   49  2  -0.48200     93.956411346000    180.463550407000   -109.478229277000
     147   49  2  -0.48200     93.158084710600    180.263800707000   -110.208143409000
     148   50  1   0.96400    -31.978340446200    195.476430996000     -3.862390828700
     149   50  2  -0.48200    -32.109979708800    195.909631970000     -3.550128085920
     150   50  2  -0.48200    -31.846701183500    195.043230022000     -4.174653571490
     151   51  1   0.96400     15.552342481500   -179.364233798000    174.051615298000
     152   51  2  -0.48200     15.698430913700   -179.363752014000    174.581858580000
     153   51  2  -0.48200     15.406254049300   -179.364715582000    173.521372016000
     154   52  1   0.96400     50.498672168500    -31.502122845800    118.362605077000
     155   52  2  -0.48200     50.435856801700    -30.981077865300    118.198086513000
     156   52  2  -0.48200     50.561487535300    -32.023167826400    118.527123641000
     157   53  1   0.96400    109.990579715000    -37.006513910700    165.722838661000
     158   53  2  -0.48200    110.523953473000    -36.913597345300    165.819683620000
     159   53  2  -0.48200    109.457205957000    -37.099430476100    165.625993702000
     160   54  1   0.96400     80.053027479200    199.835248792000    138.635302532000
     161   54  2  -0.48200     79.641494346600    200.163275997000    138.795110645000
     162   54  2  -0.48200     80.464560611900    199.507221586000    138.475494418000
     163   55  1   0.96400   -117.319101748000    117.881981225000    -60.297572442500
     164   55  2  -0.48200   -117.493283805000    117.412977574000    -60.069107595400
     165   55  2  -0.48200   -117.144919692000    118.350984876000    -60.526037289600
     166   56  1   0.96400    195.526292621000     79.377727129500   -135.240837998000
     167   56  2  -0.48200    195.585048261000     79.528974972400   -134.715317432000
     168   56  2  -0.48200    195.467536980000     79.226479286700   -135.766358563000
     169   57  1   0.96400    139.476237619000     93.697927663400    126.871138388000
     170   57  2  -0.48200    139.622744379000     93.491365614600    126.382909047000
     171   57  2  -0.48200    139.329730860000     93.904489712200    127.359367730000
     172   58  1   0.96400      0.123187782417   -137.556089686000    -83.850047462400
     173   58  2  -0.48200      0.465280230909   -137.984627261000    -83.807288796100
     174   58  2  -0.48200     -0.218904666074   -137.127552111000    -83.892806128800
     175   59  1   0.96400    168.946703700000     95.360784145700   -165.908123848000
     176   59  2  -0.48200    168.817214606000     94.848381525800   -166.060360932000
     177   59  2  -0.48200    169.076192794000     95.873186765600   -165.755886764000
     178   60  1   0.96400   -201.404249706000    -62.925792728200   -130.066954506000
     179   60  2  -0.48200   -201.608565760000    -62.484585637300   -130.324036697000
     180   60  2  -0.48200   -201.199933653000    -63.366999819000   -129.809872314000
     181   61  1   0.96400   -141.404833936000    151.043172885000    -21.683038758100
     182   61  2  -0.48200   -141.630669855000    150.573987205000    -21.860134596800
     183   61  2  -0.48200   -141.178998018000    151.512358564000    -21.505942919500
     184   62  1   0.96400      5.100547225470   -163.248176603000     44.428089904400
     185   62  2  -0.48200      5.365972832540   -162.854972684000     44.149809605200
     186   62  2  -0.48200      4.835121618400   -163.641380523000     44.706370203600
     187   63  1   0.96400     47.506215429600    143.143544002000    -58.635239401600
     188   63  2  -0.48200     46.999119270500    143.080542635000    -58.431808053900
     189   63  2  -0.48200     48.013311588600    143.206545370000    -58.838670749200
     190   64  1   0.96400     -9.437551823420    196.701675533000    170.185089863000
     191   64  2  -0.48200     -9.977695614620    196.664541881000    170.281866806000
     192   64  2  -0.48200     -8.897408032220    196.738809184000    170.088312919000
     193   65  1   0.96400    -38.506224576100     25.959782150000    -15.849073734800
     194   65  2  -0.48200    -38.803209450900     26.240079428200    -15.480653567100
     195   65  2  -0.48200    -38.209239701400     25.679484871800    -16.217493902500
     196   66  1   0.96400   -121.952899000000     28.061955180500     -0.865705161821
     197   66  2  -0.48200   -121.634928426000     28.092536086300     -1.313432224520
     198   66  2  -0.48200   -122.270869573000     28.031374274700     -0.417978099127
     199   67  1   0.96400    160.608698378000    -52.670421979500    195.119402634000
     200   67  2  -0.48200    160.495322179000    -52.244621213700    195.448552365000
     201   67  2  -0.48200    160.722074577000    -53.096222745200    194.790252903000
     202   68  1   0.96400   -185.731047944000    -21.997025930400    163.124097456000
     203   68  2  -0.48200   -185.613103034000    -22.183231233700    162.620196094000
     204   68  2  -0.48200   -185.848992855000    -21.810820627100    163.627998819000
     205   69  1   0.96400    -54.208157207100     40.291710549900    115.391900533000
     206   69  2  -0.48200    -53.773967316900     40.052374089000    115.153788800000
     207   69  2  -0.48200    -54.642347097300     40.531047010800    115.630012267000
     208   70  1   0.96400    163.099143884000     96.050238256200    -23.072270311000
     209   70  2  -0.48200    162.991340866000     95.853520461100    -22.570094427000
     210   70  2  -0.48200    163.206946902000     96.246956051400    -23.574446194900
     211   71  1   0.96400    -78.344086313900    -84.242117665500    -55.062024302500
     212   71  2  -0.48200    -78.648428034100    -84.683497323300    -54.939304642200
     213   71  2  -0.48200    -78.039744593600    -83.800738007800    -55.184743962700
     214   72  1   0.96400     53.708602837500    113.587680095000    160.283676974000
     215   72  2  -0.48200     53.549434343500    113.552569650000    159.758384058000
     216   72  2  -0.48200     53.867771331500    113.622790540000    160.808969889000
     217   73  1   0.96400    169.968936214000     80.723370288200   -170.460178315000
     218   73  2  -0.48200    170.079931659000     80.245284150500   -170.211957333000
     219   73  2  -0.48200    169.857940769000     81.201456425900   -170.708399298000
     220   74  1   0.96400    100.291844222000   -115.878120745000   -192.329691290000
     221   74  2  -0.48200    100.374242917000   -115.471218444000   -192.690441858000
     222   74  2  -0.48200    100.209445527000   -116.285023046000   -191.968940722000
     223   75  1   0.96400    -58.900264966300     46.686738091000    128.476209210000
     224   75  2  -0.48200    -58.551693503600     46.668446093000    128.051164109000
     225   75  2  -0.48200    -59.248836429000     46.705030089000    128.901254311000
     226   76  1   0.96400    188.988857781000    -33.005189500900    185.729980225000
     227   76  2  -0.48200    188.917000760000    -33.522585217000    185.557822618000
     228   76  2  -0.48200    189.060714801000    -32.487793784900    185.902137832000
     229   77  1   0.96400    -21.499146417800    197.397510606000     83.524226412600
     230   77  2  -0.48200    -21.914022773200    197.695340162000     83.320081451700
     231   77  2  -0.48200    -21.084270062300    197.099681049000     83.728371373400
     232   78  1   0.96400    -71.372427360100    -26.010008238000     78.307745932600
     233   78  2  -0.48200    -71.749022334100    -25.851546636500     77.939552849500
     234   78  2  -0.48200    -70.995832386200    -26.168469839600     78.675939015700
     235   79  1   0.96400   -199.760761166000   -127.003651567000     72.777911154100
     236   79  2  -0.48200   -199.860669046000   -127.462717282000     73.063878084100
     237   79  2  -0.48200   -199.660853287000   -126.544585852000     72.491944224000
     238   80  1   0.96400    -57.686702925400    184.909874933000    -59.271995115800
     239   80  2  -0.48200    -57.902871496400    184.628701575000    -59.692367203300
     240   80  2  -0.48200    -57.470534354500    185.191048290000    -58.851623028300
     241   81  1   0.96400     81.831522720300     57.653155125300    -65.528016947300
     242   81  2  -0.48200     81.284016277700     57.609116656000    -65.556253600300
     243   81  2  -0.48200     82.379029162900     57.697193594500    -65.499780294400
     244   82  1   0.96400    161.402320963000   -157.527528701000    -40.759982822400
     245   82  2  -0.48200    161.386982163000   -156.998938714000    -40.911169285400
     246   82  2  -0.48200    161.417659763000   -158.056118688000    -40.608796359300
     247   83  1   0.96400    104.984648435000    179.232357048000    -99.694920165000
     248   83  2  -0.48200    105.147316311000    179.196918333000    -99.170722435300
     249   83  2  -0.48200    104.821980560000    179.267795762000   -100.219117895000
     250   84  1   0.96400    105.490919071000   -147.924998524000   -119.536735603000
     251   84  2  -0.48200    105.372642266000   -148.238345878000   -119.100474175000
     252   84  2  -0.48200    105.609195876000   -147.611651170000   -119.972997030000
     253   85  1   0.96400   -181.765683550000   -200.072600899000     69.149779319100
     254   85  2  -0.48200   -181.784174592000   -200.503534911000     68.808525808500
     255   85  2  -0.48200   -181.747192507000   -199.641666887000     69.491032829800
     256   86  1   0.96400   -186.957634039000    180.198037792000    121.653567601000
     257   86  2  -0.48200   -186.669687196000    180.114760137000    121.192426139000
     258   86  2  -0.48200   -187.245580883000    180.281315448000    122.114709062000
     259   87  1   0.96400   -171.102196761000    123.751934740000     19.581874385000
     260   87  2  -0.48200   -171.303983021000    123.760679042000     19.070302452200
     261   87  2  -0.48200   -170.900410501000    123.743190437000     20.093446317800
     262   88  1   0.96400     92.571574428600    -12.025530981900     18.515774644600
     263   88  2  -0.48200     92.139619860900    -11.741010142400     18.328790304800
     264   88  2  -0.48200     93.003528996300    -12.310051821300     18.702758984400
     265   89  1   0.96400     50.425900485600   -154.423416052000   -176.475864625000
     266   89  2  -0.48200     50.680565277500   -154.106881363000   -176.105119922000
     267   89  2  -0.48200     50.171235693700   -154.739950740000   -176.846609328000
     268   90  1   0.96400   -108.142745415000   -159.183406619000   -193.047560118000
     269   90  2  -0.48200   -108.343882918000   -159.628617844000   -193.300207441000
     270   90  2  -0.48200   -107.941607912000   -158.738195394000   -192.794912794000
     271   91  1   0.96400    106.157868481000    106.074527612000   -194.656218415000
     272   91  2  -0.48200    105.725626039000    105.802555742000   -194.860418741000
     273   91  2  -0.48200    106.590110923000    106.346499483000   -194.452018089000
     274   92  1   0.96400   -192.576662143000   -125.000592195000     70.342803176700
     275   92  2  -0.48200   -192.974730859000   -124.648527384000     70.201058101700
     276   92  2  -0.48200   -192.178593426000   -125.352657005000     70.484548251800
     277   93  1   0.96400    191.759574510000    -27.687934557800    168.460215911000
     278   93  2  -0.48200    192.223082964000    -27.951563465000    168.594973890000
     279   93  2  -0.48200    191.296066057000    -27.424305650600    168.325457932000
     280   94  1   0.96400    -70.841496504400     67.434555504500    -92.980784722100
     281   94  2  -0.48200    -71.044079782300     67.897910905700    -92.764539982000
     282   94  2  -0.48200    -70.638913226600     66.971200103200    -93.197029462300
     283   95  1   0.96400      8.957276770930    154.130959622000    132.656348671000
     284   95  2  -0.48200      9.179454368750    153.627870884000    132.662580584000
     285   95  2  -0.48200      8.735099173110    154.634048360000    132.650116759000
     286   96  1   0.96400     -3.715321177870     59.858892408200    -66.532208847100
     287   96  2  -0.48200     -3.549002122160     59.338747034200    -66.466735481300
     288   96  2  -0.48200     -3.881640233580     60.379037782100    -66.597682213000
     289   97  1   0.96400   -130.992513346000    146.436916051000    -11.896563172100
     290   97  2  -0.48200   -131.169802915000    146.661040888000    -11.426630765800
     291   97  2  -0.48200   -130.815223778000    146.212791215000    -12.366495578300
     292   98  1   0.96400    202.463258278000     65.967946762400   -100.974516651000
     293   98  2  -0.48200    202.738595236915     66.208778096600   -100.563797978000
     294   98  2  -0.48200    202.187921321000     65.727115428100   -101.385235323000
     295   99  1   0.96400   -184.057509903000    188.724299241000   -201.937681530000
     296   99  2  -0.48200   -184.239482427000    189.054757562000   -201.537452472000
     297   99  2  -0.48200   -183.875537379000    188.393840919000   -202.337910587000
     298  100  1   0.96400   -131.239207852000    -32.465602788900   -202.222243454000
     299  100  2  -0.48200   -131.786106145000    -32.522671929100   -202.210186475000
     300  100  2  -0.48200   -130.692309560000    -32.408533648700   -202.234300433000
     301  101  1   0.96400    -19.769546046900    188.246616608000    177.738415778000
     302  101  2  -0.48200    -19.983749717700    187.897219682000    178.105210783000
     303  101  2  -0.48200    -19.555342376200    188.596013533000    177.371620773000
     304  102  1   0.96400    -81.656896152300    172.996112415000     76.416706045200
     305  102  2  -0.48200    -81.886735234900    172.612793846000     76.737238213400
     306  102  2  -0.48200    -81.427057069700    173.379430984000     76.096173876900
     307  103  1   0.96400     70.793236860200     -3.186244329540     28.003777037500
     308  103  2  -0.48200     70.922988348300     -2.938222132660     28.477221375500
     309  103  2  -0.48200     70.663485372100     -3.434266526430     27.530332699500
     310  104  1   0.96400     95.033662398600    -14.800436471300      3.945121480900
     311  104  2  -0.48200     95.511601917800    -14.530934491700      3.907141236900
     312  104  2  -0.48200     94.555722879400    -15.069938451000      3.983101724900
     313  105  1   0.96400     41.431788821700    185.168546309000    145.546745150000
     314  105  2  -0.48200     41.231382087300    185.153125072000    145.034788779000
     315  105  2  -0.48200     41.632195556100    185.183967547000    146.058701522000
     316  106  1   0.96400     24.141380450700    104.686707243000   -114.885419990000
     317  106  2  -0.48200     23.609107593500    104.702737423000   -114.747838601000
     318  106  2  -0.48200     24.673653308000    104.670677063000   -115.023001380000
     319  107  1   0.96400    157.066750283000     90.930774023100    -10.307566423500
     320  107  2  -0.48200    157.220488545000     91.119974558600    -10.800585392700
     321  107  2  -0.48200    156.913012021000     90.741573487500     -9.814547454250
     322  108  1   0.96400   -111.072381939000     64.022983805600   -192.354378611000
     323  108  2  -0.48200   -110.671074617000     64.381507064500   -192.468016220000
     324  108  2  -0.48200   -111.473689260000     63.664460546700   -192.240741002000
     325  109  1   0.96400     29.272992541900    -44.562033793800     64.676918308800
     326  109  2  -0.48200     29.372339868900    -44.244830707000     65.115110401800
     327  109  2  -0.48200     29.173645214900    -44.879236880500     64.238726215800
     328  110  1   0.96400   -183.310197465000   -137.251488293000     71.114129278900
     329  110  2  -0.48200   -183.719880594000   -136.988385642000     71.369935317500
     330  110  2  -0.48200   -182.900514336000   -137.514590943000     70.858323240300
     331  111  1   0.96400     95.227343823600     23.793981575400     34.112682752900
     332  111  2  -0.48200     94.965837038400     24.224677817300     34.333170730900
     333  111  2  -0.48200     95.488850608800     23.363285333400     33.892194774900
     334  112  1   0.96400     16.892256139600     91.660056068800   -112.101528971000
     335  112  2  -0.48200     17.257072452900     91.943645211500   -111.803223330000
     336  112  2  -0.48200     16.527439826300     91.376466926000   -112.399834613000
     337  113  1   0.96400     64.596370249700    -13.082547904800    154.720235628000
     338  113  2  -0.48200     64.716383775800    -13.074365778300    154.183551544000
     339  113  2  -0.48200     64.476356723500    -13.090730031300    155.256919713000
     340  114  1   0.96400    126.141955155000    165.738832814000   -167.069029838000