LAMMPS Atom File

         3000 atoms
         2000 bonds
         1000 angles
           0 dihedrals
           0 impropers

           2 atom types
           1 bond types
           1 angle types

         0.0  149.196860672 xlo xhi
         0.0  149.196860672 ylo yhi
         0.0  149.196860672 zlo zhi

Masses

         1    1.0e-20
         2   14.00670

Atoms

       1    1  1   0.96400    -40.608066620900     57.938851974700     18.126443285500
       2    1  2  -0.48200    -40.822244370000     57.788476160700     18.610194261100
       3    1  2  -0.48200    -40.393888871800     58.089227788700     17.642692310000
       4    2  1   0.96400     39.038599797600     -2.681154046240      6.719834403230
       5    2  2  -0.48200     39.363685846000     -3.113526241490      6.620469691620
       6    2  2  -0.48200     38.713513749200     -2.248781851000      6.819199114840
       7    3  1   0.96400    -49.767867423800     72.965527057400     65.520050009000
       8    3  2  -0.48200    -49.918991795400     73.243570003800     65.969887251000
       9    3  2  -0.48200    -49.616743052100     72.687484111000     65.070212767000
      10    4  1   0.96400     39.410337243400    -63.676774440500    -17.845738338700
      11    4  2  -0.48200     39.946072653800    -63.552407702600    -17.841212356600
      12    4  2  -0.48200     38.874601832900    -63.801141178500    -17.850264320800
      13    5  1   0.96400    -22.130181950100     72.313594756000     13.304847163700
      14    5  2  -0.48200    -22.046746568000     72.621783414600     12.857009818500
      15    5  2  -0.48200    -22.213617332200     72.005406097500     13.752684509000
      16    6  1   0.96400    -21.037442924500     70.572259466400    -73.076935551600
      17    6  2  -0.48200    -21.019875587600     70.438231878400    -73.610065924300
      18    6  2  -0.48200    -21.055010261500     70.706287054400    -72.543805178900
      19    7  1   0.96400     56.417569252000     13.318977663300     -6.506569465480
      20    7  2  -0.48200     56.958792682000     13.221672722000     -6.496131689460
      21    7  2  -0.48200     55.876345821900     13.416282604700     -6.517007241500
      22    8  1   0.96400     63.554249484900    -18.374179308000     29.767836469400
      23    8  2  -0.48200     63.154111256300    -18.673587357700     29.997497562700
      24    8  2  -0.48200     63.954387713600    -18.074771258400     29.538175376100
      25    9  1   0.96400     25.130418604200     44.469797708800    -61.745101617000
      26    9  2  -0.48200     24.845088189100     44.745737515200    -62.125816441300
      27    9  2  -0.48200     25.415749019400     44.193857902400    -61.364386792700
      28   10  1   0.96400     42.197356462400    -13.772505482200     68.596893012200
      29   10  2  -0.48200     42.259026534100    -13.481458734400     68.134304001500
      30   10  2  -0.48200     42.135686390700    -14.063552230000     69.059482022900
      31   11  1   0.96400      0.469935706488    -21.987705589300    -48.896323135900
      32   11  2  -0.48200      0.603684352696    -21.886271227100    -48.372565205300
      33   11  2  -0.48200      0.336187060281    -22.089139951400    -49.420081066400
      34   12  1   0.96400    -34.843469584300    -21.335771547000     22.070834156100
      35   12  2  -0.48200    -34.350681365200    -21.565754891200     22.153098562000
      36   12  2  -0.48200    -35.336257803400    -21.105788202800     21.988569750100
      37   13  1   0.96400    -42.267968266600    -52.535335383700     49.463952672500
      38   13  2  -0.48200    -42.411291311700    -52.195158871500     49.871676163600
      39   13  2  -0.48200    -42.124645221500    -52.875511896000     49.056229181300
      40   14  1   0.96400    -47.099392439000    -31.443160406400     49.067157508400
      41   14  2  -0.48200    -47.248835666700    -31.759978713200     49.491177416200
      42   14  2  -0.48200    -46.949949211400    -31.126342099500     48.643137600700
      43   15  1   0.96400     53.970921610500     63.468563480300    -66.440789854000
      44   15  2  -0.48200     54.265635873600     63.546509303300    -66.898575777500
      45   15  2  -0.48200     53.676207347300     63.390617657300    -65.983003930500
      46   16  1   0.96400     31.274215210400     55.686537524100     59.678206529500
      47   16  2  -0.48200     31.503583552500     56.182135943100     59.743569904600
      48   16  2  -0.48200     31.044846868400     55.190939105200     59.612843154500
      49   17  1   0.96400    -62.830624237200     73.599808689300     18.096291382200
      50   17  2  -0.48200    -63.253008176000     73.898738108200     18.282659326700
      51   17  2  -0.48200    -62.408240298400     73.300879270300     17.909923437700
      52   18  1   0.96400    -33.112667437500    -20.720126376400     41.228015590700
      53   18  2  -0.48200    -33.659819149000    -20.668924718400     41.250452052300
      54   18  2  -0.48200    -32.565515725900    -20.771328034500     41.205579129100
      55   19  1   0.96400     -9.162010841250     -6.098406473600     44.877555806800
      56   19  2  -0.48200     -9.566737370730     -6.470264847720     44.897995619300
      57   19  2  -0.48200     -8.757284311770     -5.726548099490     44.857115994300
      58   20  1   0.96400    -49.423435757600    -17.699162288000    -59.003224371500
      59   20  2  -0.48200    -49.248250755100    -18.100477730600    -59.336024807800
      60   20  2  -0.48200    -49.598620760100    -17.297846845500    -58.670423935100
      61   21  1   0.96400     64.383160896100    -60.949619412800     27.853714194600
      62   21  2  -0.48200     63.889836419000    -61.065697430400     28.067388839900
      63   21  2  -0.48200     64.876485373300    -60.833541395200     27.640039549200
      64   22  1   0.96400     18.702996775700    -31.008414758200     57.986025255900
      65   22  2  -0.48200     18.270360401300    -31.060551174800     58.321595757700
      66   22  2  -0.48200     19.135633150100    -30.956278341700     57.650454754200
      67   23  1   0.96400    -26.336122105300    -34.376938362200     12.314786570900
      68   23  2  -0.48200    -25.821408581200    -34.488098652100     12.155999360900
      69   23  2  -0.48200    -26.850835629400    -34.265778072300     12.473573780900
      70   24  1   0.96400    -10.802786546600    -15.441746303000     70.087022738700
      71   24  2  -0.48200    -11.250297004000    -15.562876382600     69.791114147500
      72   24  2  -0.48200    -10.355276089200    -15.320616223500     70.382931329800
      73   25  1   0.96400    -55.605054043200     13.536196633800    -52.438186112700
      74   25  2  -0.48200    -55.412606380300     13.997284581100    -52.208269166900
      75   25  2  -0.48200    -55.797501706100     13.075108686600    -52.668103058400
      76   26  1   0.96400    -69.628441045500     69.392583345600      3.834747320330
      77   26  2  -0.48200    -69.165661224100     69.430080942200      3.539910471910
      78   26  2  -0.48200    -70.091220866900     69.355085748900      4.129584168740
      79   27  1   0.96400    -31.955433705600     67.975112749700     -5.250944283820
      80   27  2  -0.48200    -31.957776388200     68.523361798600     -5.294733462800
      81   27  2  -0.48200    -31.953091022900     67.426863700700     -5.207155104830
      82   28  1   0.96400    -20.681207977500    -40.797602599100     38.720517923000
      83   28  2  -0.48200    -20.745641459900    -41.081740014200     38.254026491500
      84   28  2  -0.48200    -20.616774495100    -40.513465184000     39.187009354500
      85   29  1   0.96400     42.777962355700    -14.712533317100     37.944510295900
      86   29  2  -0.48200     42.871456946100    -14.456469881500     38.422202957000
      87   29  2  -0.48200     42.684467765200    -14.968596752800     37.466817634800
      88   30  1   0.96400     65.905995402900    -53.732890097900    -37.714262435400
      89   30  2  -0.48200     65.608946659400    -53.383382743300    -37.410771656200
      90   30  2  -0.48200     66.203044146300    -54.082397452400    -38.017753214700
      91   31  1   0.96400    -43.896510824600      4.293744076500     28.416452814200
      92   31  2  -0.48200    -43.871337256200      3.837048944720     28.721896504700
      93   31  2  -0.48200    -43.921684393000      4.750439208290     28.111009123700
      94   32  1   0.96400     63.340285304400    -35.603018480500    -59.161386913500
      95   32  2  -0.48200     63.764817705500    -35.362299064900    -59.415013417200
      96   32  2  -0.48200     62.915752903200    -35.843737896100    -58.907760409900
      97   33  1   0.96400     72.500991655400     26.721155580500    -55.193188459800
      98   33  2  -0.48200     72.840234241400     26.303516401200    -55.079206076200
      99   33  2  -0.48200     72.161749069400     27.138794759800    -55.307170843300
     100   34  1   0.96400     43.960395251500    -71.999466235400     26.510519355100
     101   34  2  -0.48200     43.750203077900    -71.542839346100     26.287335273800
     102   34  2  -0.48200     44.170587425100    -72.456093124600     26.733703436400
     103   35  1   0.96400    -49.797154915700    -18.419759033200     20.913370225700
     104   35  2  -0.48200    -50.269564728800    -18.517986449500     20.649399880400
     105   35  2  -0.48200    -49.324745102600    -18.321531616800     21.177340570900
     106   36  1   0.96400     37.543947667500     58.780754281900     65.049714065900
     107   36  2  -0.48200     37.653032145100     58.509798197900     65.515743439700
     108   36  2  -0.48200     37.434863189900     59.051710365900     64.583684692000
     109   37  1   0.96400     25.799921197500    -27.430282765700     40.939692062900
     110   37  2  -0.48200     25.530601724000    -27.150314077900     41.329030675200
     111   37  2  -0.48200     26.069240671000    -27.710251453400     40.550353450500
     112   38  1   0.96400     48.133981864300    -68.519775469800    -66.567248878100
     113   38  2  -0.48200     47.980549711100    -68.711052978300    -66.074936488300
     114   38  2  -0.48200     48.287414017500    -68.328497961200    -67.059561267800
     115   39  1   0.96400    -34.676477651500    -54.920784903300     16.708729520900
     116   39  2  -0.48200    -34.270696209100    -55.055807221100     16.362882163400
     117   39  2  -0.48200    -35.082259093900    -54.785762585500     17.054576878400
     118   40  1   0.96400    -21.893697072500    -26.893697285100     68.419452678100
     119   40  2  -0.48200    -21.640455404800    -26.606880045600     68.024352021500
     120   40  2  -0.48200    -22.146938740200    -27.180514524600     68.814553334700
     121   41  1   0.96400     63.045431774600    -45.391482989900    -50.694512235900
     122   41  2  -0.48200     62.674207803700    -45.483535251100    -51.089757912200
     123   41  2  -0.48200     63.416655745600    -45.299430728600    -50.299266559600
     124   42  1   0.96400      1.884237238300     57.278465657300     63.703548538900
     125   42  2  -0.48200      1.458947421930     56.929888123400     63.714606339500
     126   42  2  -0.48200      2.309527054670     57.627043191200     63.692490738300
     127   43  1   0.96400     21.102979397300     17.697918880400    -20.866095357800
     128   43  2  -0.48200     20.792503530300     17.938000063200    -21.251407908400
     129   43  2  -0.48200     21.413455264400     17.457837697600    -20.480782807200
     130   44  1   0.96400     70.222019067100    -13.583729459100     71.512132724000
     131   44  2  -0.48200     70.122468828800    -13.956276594200     71.904304092400
     132   44  2  -0.48200     70.321569305400    -13.211182323900     71.119961355700
     133   45  1   0.96400    -44.044538759200     59.274176954200    -14.598150228200
     134   45  2  -0.48200    -44.217025450100     59.063625733300    -15.076079642300
     135   45  2  -0.48200    -43.872052068400     59.484728175000    -14.120220814100
     136   46  1   0.96400     55.291796141200     39.514458507200     17.140588095700
     137   46  2  -0.48200     55.687612783600     39.132775880100     17.152735433700
     138   46  2  -0.48200     54.895979498800     39.896141134200     17.128440757600
     139   47  1   0.96400    -49.688522611000    -31.728581906300    -65.066294569400
     140   47  2  -0.48200    -49.348940465300    -32.139969330800    -65.200251104700
     141   47  2  -0.48200    -50.028104756600    -31.317194481800    -64.932338034100
     142   48  1   0.96400    -11.988492538500     63.383813162000    -20.183575979200
     143   48  2  -0.48200    -11.544372194900     63.520421455700    -20.477846763500
     144   48  2  -0.48200    -12.432612882100     63.247204868300    -19.889305194800
     145   49  1   0.96400     42.731061897700     42.117113102000      8.717565513180
     146   49  2  -0.48200     43.172672240200     42.119595300300      9.045398007120
     147   49  2  -0.48200     42.289451555200     42.114630903700      8.389733019250
     148   50  1   0.96400    -19.628761211100    -23.589061054400    -34.095486539200
     149   50  2  -0.48200    -19.950944251200    -23.143323524200    -34.091468723000
     150   50  2  -0.48200    -19.306578170900    -24.034798584500    -34.099504355400
     151   51  1   0.96400     -4.342660103310     -2.840640107390    -53.427099047100
     152   51  2  -0.48200     -4.660283124850     -2.927086239690    -52.986482794200
     153   51  2  -0.48200     -4.025037081780     -2.754193975100    -53.867715300100
     154   52  1   0.96400    -54.868625436400     70.524927644700    -25.311840727900
     155   52  2  -0.48200    -55.086625965400     70.114445019500    -25.605915180700
     156   52  2  -0.48200    -54.650624907400     70.935410270000    -25.017766275200
     157   53  1   0.96400      2.843206579100     24.513550910600     36.802556502800
     158   53  2  -0.48200      3.104438076110     24.985802495400     36.908559076200
     159   53  2  -0.48200      2.581975082090     24.041299325700     36.696553929500
     160   54  1   0.96400     66.537435881900     10.547840357600     71.801133466500
     161   54  2  -0.48200     66.588045494000     10.889203755400     71.372869882000
     162   54  2  -0.48200     66.486826269900     10.206476959900     72.229397051000
     163   55  1   0.96400      0.503976506275    -40.284770701400    -24.076243527900
     164   55  2  -0.48200      0.686613254242    -40.531561786500    -23.619912531100
     165   55  2  -0.48200      0.321339758307    -40.037979616400    -24.532574524700
     166   56  1   0.96400     -9.722764710010      9.996738835210     -3.661320957780
     167   56  2  -0.48200     -9.220561994510     10.220575202100     -3.647547309050
     168   56  2  -0.48200    -10.224967425500      9.772902468300     -3.675094606500
     169   57  1   0.96400    -10.310787689600    -48.073000022200    -17.134161065300
     170   57  2  -0.48200    -10.803476736500    -47.830375355600    -17.164006905800
     171   57  2  -0.48200     -9.818098642650    -48.315624688700    -17.104315224800
     172   58  1   0.96400     69.523929816400    -34.943682416600    -56.521457499500
     173   58  2  -0.48200     69.222910119100    -35.384521808800    -56.653925503400
     174   58  2  -0.48200     69.824949513800    -34.502843024300    -56.388989495700
     175   59  1   0.96400    -27.738869480100     -8.406370332240    -21.924701546500
     176   59  2  -0.48200    -28.037077852300     -8.149212130720    -22.308682569600
     177   59  2  -0.48200    -27.440661107900     -8.663528533750    -21.540720523300
     178   60  1   0.96400    -40.387436439100     12.283242585400    -32.457047626900
     179   60  2  -0.48200    -40.719431112700     12.717962756400    -32.399620197800
     180   60  2  -0.48200    -40.055441765400     11.848522414400    -32.514475056000
     181   61  1   0.96400    -23.297071542600     33.998963890100     14.317533266000
     182   61  2  -0.48200    -22.848926543800     33.807473993300     14.062586841400
     183   61  2  -0.48200    -23.745216541500     34.190453787000     14.572479690600
     184   62  1   0.96400    -21.195743199200     35.779593944000     22.134120217700
     185   62  2  -0.48200    -20.651384578200     35.802877651800     22.209163942700
     186   62  2  -0.48200    -21.740101820200     35.756310236200     22.059076492600
     187   63  1   0.96400     72.330226629700    -51.526637406200     23.516105800800
     188   63  2  -0.48200     72.533512514400    -51.867876489600     23.896540732300
     189   63  2  -0.48200     72.126940745000    -51.185398322900     23.135670869300
     190   64  1   0.96400     13.009681619500     25.449285997700    -13.444558614100
     191   64  2  -0.48200     13.368230261500     25.097952457600    -13.219819621300
     192   64  2  -0.48200     12.651132977500     25.800619537900    -13.669297606900
     193   65  1   0.96400    -32.822823636500     54.388074425200     -5.756991549110
     194   65  2  -0.48200    -33.351298327800     54.531975511200     -5.706921816970
     195   65  2  -0.48200    -32.294348945200     54.244173339100     -5.807061281250
     196   66  1   0.96400    -34.435004572500     13.102799465400    -66.532997608300
     197   66  2  -0.48200    -34.750905470600     13.440196841600    -66.831107710600
     198   66  2  -0.48200    -34.119103674400     12.765402089100    -66.234887506000
     199   67  1   0.96400     67.285177112100     72.653213161300     66.753809197400
     200   67  2  -0.48200     67.698846275000     72.968578400700     66.932478135500
     201   67  2  -0.48200     66.871507949200     72.337847921900     66.575140259200
     202   68  1   0.96400     13.236980406000      6.039138057960     11.087931976900
     203   68  2  -0.48200     12.854843092600      6.137777485520     10.704863657800
     204   68  2  -0.48200     13.619117719300      5.940498630390     11.471000295900
     205   69  1   0.96400     -9.165368076450     62.559173879800     45.462670351000
     206   69  2  -0.48200     -8.991531294280     62.084747862100     45.245413068300
     207   69  2  -0.48200     -9.339204858610     63.033599897500     45.679927633700
     208   70  1   0.96400      5.302610135710    -17.247069709000    -16.951005587000
     209   70  2  -0.48200      5.466286851860    -17.544344644100    -17.383830662000
     210   70  2  -0.48200      5.138933419570    -16.949794774000    -16.518180512000
     211   71  1   0.96400     44.085882350200     -6.203585528620     58.660898171200
     212   71  2  -0.48200     44.285043596500     -6.052729240910     59.150874883300
     213   71  2  -0.48200     43.886721104000     -6.354441816340     58.170921459000
     214   72  1   0.96400    -40.514829794900     -0.117896344645    -26.189126946100
     215   72  2  -0.48200    -40.569186474100     -0.452840179414    -26.621975625200
     216   72  2  -0.48200    -40.460473115700      0.217047490125    -25.756278267000
     217   73  1   0.96400     30.824727059500    -55.762633492000    -59.626290257400
     218   73  2  -0.48200     30.712340605200    -55.281640458500    -59.868188969000
     219   73  2  -0.48200     30.937113513700    -56.243626525400    -59.384391545700
     220   74  1   0.96400    -36.413676407100     10.356695723900    -46.954792985700
     221   74  2  -0.48200    -36.912108160200     10.142955550300    -46.863245589700
     222   74  2  -0.48200    -35.915244654000     10.570435897600    -47.046340381700
     223   75  1   0.96400     -9.253784190820    -58.670950538600    -31.333650529400
     224   75  2  -0.48200     -9.525544564010    -58.899543478800    -30.913660568500
     225   75  2  -0.48200     -8.982023817640    -58.442357598300    -31.753640490200
     226   76  1   0.96400     54.043537120400      6.994394563960    -31.088223068500
     227   76  2  -0.48200     54.174273463000      7.090482411990    -30.562699392400
     228   76  2  -0.48200     53.912800777800      6.898306715920    -31.613746744600
     229   77  1   0.96400    -31.812127539800    -54.250171631000    -44.544509988600
     230   77  2  -0.48200    -31.400874512700    -54.612215553900    -44.496602311400
     231   77  2  -0.48200    -32.223380567000    -53.888127708100    -44.592417665900
     232   78  1   0.96400    -27.861995302200    -70.800051845300      2.674114288280
     233   78  2  -0.48200    -27.506972312600    -70.517767233700      2.985199606060
     234   78  2  -0.48200    -28.217018291700    -71.082336457000      2.363028970500
     235   79  1   0.96400     70.303543339400     -4.593070981230    -68.683823850600
     236   79  2  -0.48200     70.099352124600     -4.433405834270    -68.198733149200
     237   79  2  -0.48200     70.507734554200     -4.752736128180    -69.168914552100
     238   80  1   0.96400    -42.220958003400     50.783771209100    -31.457174907500
     239   80  2  -0.48200    -41.987197160400     50.649331972100    -31.936530683300
     240   80  2  -0.48200    -42.454718846400     50.918210446100    -30.977819131600
     241   81  1   0.96400     -1.715274001090     58.620192569800     44.326261468100
     242   81  2  -0.48200     -1.643974018080     58.188899546500     43.992491127100
     243   81  2  -0.48200     -1.786573984100     59.051485593100     44.660031809000
     244   82  1   0.96400     62.482768390100     27.226421964900      1.658544665690
     245   82  2  -0.48200     62.735983208100     27.264559939700      1.171792417800
     246   82  2  -0.48200     62.229553572100     27.188283990000      2.145296913590
     247   83  1   0.96400     54.009166067600    -59.810599874100     69.837902051300
     248   83  2  -0.48200     53.952888118400    -59.555596348900     70.321953695900
     249   83  2  -0.48200     54.065444016900    -60.065603399300     69.353850406800
     250   84  1   0.96400    -37.049361359400    -58.586719162900    -63.285741500600
     251   84  2  -0.48200    -37.371175772600    -58.176411906200    -63.460622713300
     252   84  2  -0.48200    -36.727546946200    -58.997026419700    -63.110860288000
     253   85  1   0.96400    -55.649134672900    -58.992043582700     48.310216300900
     254   85  2  -0.48200    -55.556273131100    -59.533543137100     48.284623985200
     255   85  2  -0.48200    -55.741996214800    -58.450544028300     48.335808616600
     256   86  1   0.96400    -74.289095501500    -21.081515812500     51.784406646100
     257   86  2  -0.48200    -74.087246372700    -21.585356421500     51.873297421400
     258   86  2  -0.48200    -74.490944630200    -20.577675203500     51.695515870700
     259   87  1   0.96400     49.612377051800    -36.827377889700     57.623556624500
     260   87  2  -0.48200     49.505869491100    -37.219841800200     57.993864899300
     261   87  2  -0.48200     49.718884612400    -36.434913979100     57.253248349600
     262   88  1   0.96400     32.235190312900    -17.789575961500    -52.107709700700
     263   88  2  -0.48200     32.671638228700    -18.106900688000    -52.001322508300
     264   88  2  -0.48200     31.798742397100    -17.472251234900    -52.214096893000
     265   89  1   0.96400      9.330181975640     40.350048132600    -34.315251173900
     266   89  2  -0.48200      8.803155298300     40.212867750100    -34.238280893700
     267   89  2  -0.48200      9.857208652980     40.487228515100    -34.392221454000
     268   90  1   0.96400     58.474269740900      8.484685539970     67.986055293200
     269   90  2  -0.48200     58.836603228100      8.071116738210     67.999295016200
     270   90  2  -0.48200     58.111936253700      8.898254341740     67.972815570200
     271   91  1   0.96400    -26.668983708100     67.275705781000     50.101414096700
     272   91  2  -0.48200    -26.859509103400     67.552517741800     49.666011740100
     273   91  2  -0.48200    -26.478458312800     66.998893820200     50.536816453300
     274   92  1   0.96400      0.463862763569    -35.257482906100     55.203968627400
     275   92  2  -0.48200      0.054692547956    -34.985014725400     54.957309297200
     276   92  2  -0.48200      0.873032979182    -35.529951086800     55.450627957600
     277   93  1   0.96400    -28.665303073700    -11.050857748100     31.182142761100
     278   93  2  -0.48200    -29.020772724800    -10.720435247200     30.923372016800
     279   93  2  -0.48200    -28.309833422700    -11.381280248900     31.440913505500
     280   94  1   0.96400     -9.836472369240    -56.273736295900     25.626701538300
     281   94  2  -0.48200    -10.062984848400    -56.643616274000     25.288499086100
     282   94  2  -0.48200     -9.609959890130    -55.903856317900     25.964903990500
     283   95  1   0.96400    -69.197891872200    -40.807657931900     64.497740889400
     284   95  2  -0.48200    -69.303973959300    -41.285366842800     64.246661644500
     285   95  2  -0.48200    -69.091809785200    -40.329949021000     64.748820134300
     286   96  1   0.96400     12.698878829200     26.063695157900     40.731175275500
     287   96  2  -0.48200     13.213111100700     25.885131811000     40.809790172800
     288   96  2  -0.48200     12.184646557600     26.242258504700     40.652560378300
     289   97  1   0.96400     45.878006427900     18.090665587300      9.552209335600
     290   97  2  -0.48200     45.539967748400     18.515914281700      9.466224458620
     291   97  2  -0.48200     46.216045107300     17.665416892900      9.638194212580
     292   98  1   0.96400    -35.691461699700    -35.911920419600    -16.763575026500
     293   98  2  -0.48200    -35.641480614500    -36.296810491500    -17.153269167600
     294   98  2  -0.48200    -35.741442785000    -35.527030347600    -16.373880885300
     295   99  1   0.96400     70.460675682200    -37.176812990600     51.922993697300
     296   99  2  -0.48200     69.940125894300    -37.352564678300     51.948277340300
     297   99  2  -0.48200     70.981225470100    -37.001061303000     51.897710054300
     298  100  1   0.96400    -36.079894039600    -33.580265647400     57.847439312700
     299  100  2  -0.48200    -36.007643768000    -34.110869366200     57.972896843000
     300  100  2  -0.48200    -36.152144311200    -33.049661928700     57.721981782500
     301  101  1   0.96400     40.483796647500    -45.673744415300    -38.989016498600
     302  101  2  -0.48200     41.020380552700    -45.692371074900    -38.869723748800
     303  101  2  -0.48200     39.947212742200    -45.655117755600    -39.108309248400
     304  102  1   0.96400    -63.839251870300    -32.600007364100    -72.831768641400
     305  102  2  -0.48200    -63.470134325900    -32.202237223400    -72.742151937300
     306  102  2  -0.48200    -64.208369414700    -32.997777504700    -72.921385345500
     307  103  1   0.96400    -73.995708763500    -17.826442412400     37.507040161900
     308  103  2  -0.48200    -73.591128147000    -17.457137236000     37.556317047700
     309  103  2  -0.48200    -74.400289380000    -18.195747588800     37.457763276200
     310  104  1   0.96400    -60.584969475400     69.578484188100     30.290258626500
     311  104  2  -0.48200    -60.489789407000     69.844681602700     29.818475105100
     312  104  2  -0.48200    -60.680149543900     69.312286773600     30.762042147900
     313  105  1   0.96400     53.235586131100    -32.803825749500    -20.364865845700
     314  105  2  -0.48200     53.090380255600    -32.423232810000    -20.734411875500
     315  105  2  -0.48200     53.380792006700    -33.184418689000    -19.995319815900
     316  106  1   0.96400     -4.946953352350     16.417991533500    -41.077727722700
     317  106  2  -0.48200     -5.166631146260     15.948179518000    -40.894647584500
     318  106  2  -0.48200     -4.727275558440     16.887803548900    -41.260807860800
     319  107  1   0.96400     -6.484738474750     39.175634032100    -45.448756063800
     320  107  2  -0.48200     -6.629027979100     38.658352398900    -45.330011586500
     321  107  2  -0.48200     -6.340448970400     39.692915665300    -45.567500541100
     322  108  1   0.96400     43.468359557500     27.975926730100    -56.032989348800
     323  108  2  -0.48200     43.842517663600     28.219946375500    -55.712115348100
     324  108  2  -0.48200     43.094201451500     27.731907084700    -56.353863349500
     325  109  1   0.96400    -47.771672156800      9.618462828390    -70.959177388100
     326  109  2  -0.48200    -47.510596919800     10.016425720400    -70.683559432900
     327  109  2  -0.48200    -48.032747393900      9.220499936390    -71.234795343200
     328  110  1   0.96400    -24.291244437200     23.078639272300    -21.068477991100
     329  110  2  -0.48200    -23.946332550000     23.504781770900    -21.024451169300
     330  110  2  -0.48200    -24.636156324300     22.652496773800    -21.112504812800
     331  111  1   0.96400    -15.530147271700     42.801611642100     -5.518066368540
     332  111  2  -0.48200    -15.715793296100     42.891538499000     -5.008214709690
     333  111  2  -0.48200    -15.344501247300     42.711684785200     -6.027918027390
     334  112  1   0.96400    -56.631658175200     74.087845500400     -2.344818965250
     335  112  2  -0.48200    -57.139273283500     73.984199991800     -2.529438872970
     336  112  2  -0.48200    -56.124043066800     74.191491008900     -2.160199057530
     337  113  1   0.96400     50.999360157100     60.956649895600    -24.357379195100
     338  113  2  -0.48200     51.023326614500     61.339727746000    -23.963454114000
     339  113  2  -0.48200     50.975393699800     60.573572045300    -24.751304276200
     340  114  1   0.96400    -61.195559858700     46.330818862000     -7.207880123790