LAMMPS Atom File

         3000 atoms
         2000 bonds
         1000 angles
           0 dihedrals
           0 impropers

           2 atom types
           1 bond types
           1 angle types

         0.0  38.6324446055 xlo xhi
         0.0  38.6324446055 ylo yhi
         0.0  38.6324446055 zlo zhi

Masses

         1    1.0e-20
         2   14.00670

Atoms

       1    1  1   0.96400    -11.829717095400     10.844697043500      3.636925267530
       2    1  2  -0.48200    -11.513356432400     10.656237512100      4.045457929520
       3    1  2  -0.48200    -12.146077758400     11.033156574900      3.228392605530
       4    2  1   0.96400      7.625824459960      0.974482570511     -2.050613267560
       5    2  2  -0.48200      7.616097123250      1.104203081620     -2.585008222550
       6    2  2  -0.48200      7.635551796670      0.844762059404     -1.516218312570
       7    3  1   0.96400    -10.486749194200    -18.223820656000     16.428935539600
       8    3  2  -0.48200    -10.039508176300    -18.031787734400     16.685058223000
       9    3  2  -0.48200    -10.933990212000    -18.415853577600     16.172812856200
      10    4  1   0.96400     12.204498820800    -17.303742176800     -1.462128793370
      11    4  2  -0.48200     12.623477297700    -17.187498202900     -1.798943838200
      12    4  2  -0.48200     11.785520343900    -17.419986150600     -1.125313748540
      13    5  1   0.96400     -9.233148695630     17.739555225200     -0.174985937910
      14    5  2  -0.48200     -9.183681962450     17.201755416900     -0.279026355435
      15    5  2  -0.48200     -9.282615428810     18.277355033600     -0.070945520385
      16    6  1   0.96400     -4.096617411970     10.469623659700    -18.124674540200
      17    6  2  -0.48200     -4.355033567670     10.172247674800    -17.740892552500
      18    6  2  -0.48200     -3.838201256280     10.766999644700    -18.508456527900
      19    7  1   0.96400     18.126614016300      0.026334898628     -4.144411441590
      20    7  2  -0.48200     18.257438311100     -0.190510575183     -3.656187062470
      21    7  2  -0.48200     17.995789721400      0.243180372439     -4.632635820700
      22    8  1   0.96400     14.491733644100     -5.500869883940      4.197986661040
      23    8  2  -0.48200     14.949038037200     -5.641157329650      4.469449595190
      24    8  2  -0.48200     14.034429251000     -5.360582438230      3.926523726900
      25    9  1   0.96400      7.030804801360     15.003913379500    -17.377327048100
      26    9  2  -0.48200      7.428561257060     14.930786316900    -17.004577487800
      27    9  2  -0.48200      6.633048345660     15.077040442100    -17.750076608300
      28   10  1   0.96400      6.554255468360     -7.244302553950     19.080260639100
      29   10  2  -0.48200      6.118477550990     -7.285050819520     19.413332981943
      30   10  2  -0.48200      6.990033385730     -7.203554288370     18.747188296200
      31   11  1   0.96400     -1.675753568360     -4.699692637310    -13.929355120800
      32   11  2  -0.48200     -1.744168614930     -4.952524210540    -14.412982639600
      33   11  2  -0.48200     -1.607338521800     -4.446861064080    -13.445727601900
      34   12  1   0.96400     -8.915066793860     -6.048165956070      3.636797217160
      35   12  2  -0.48200     -9.303838936390     -5.750736642400      3.386014393650
      36   12  2  -0.48200     -8.526294651330     -6.345595269730      3.887580040660
      37   13  1   0.96400    -12.014209856500    -11.912058991000     11.047278155700
      38   13  2  -0.48200    -12.106408154700    -12.319913811700     10.689991269500
      39   13  2  -0.48200    -11.922011558200    -11.504204170300     11.404565041900
      40   14  1   0.96400    -15.978365982000     -5.053361409640     10.525887825700
      41   14  2  -0.48200    -16.031222955800     -5.234824612640     11.042392662400
      42   14  2  -0.48200    -15.925509008200     -4.871898206630     10.009382989100
      43   15  1   0.96400     17.239130023100     15.011984012400     18.172158119000
      44   15  2  -0.48200     17.760767270300     15.026285891100     17.998405310000
      45   15  2  -0.48200     16.717492776000     14.997682133800     18.345910928000
      46   16  1   0.96400     11.663737882200     14.824397712000     13.252248780100
      47   16  2  -0.48200     11.485758354300     14.373634814500     13.512318189800
      48   16  2  -0.48200     11.841717410100     15.275160609500     12.992179370400
      49   17  1   0.96400     18.469201063100     18.564601895200      1.636787447960
      50   17  2  -0.48200     18.487517805200     18.433931261900      2.170725349370
      51   17  2  -0.48200     18.450884321000     18.695272528400      1.102849546540
      52   18  1   0.96400     -6.981104573030     -6.170887547420      7.528479607430
      53   18  2  -0.48200     -6.437781895120     -6.228839163870      7.591265575750
      54   18  2  -0.48200     -7.524427250940     -6.112935930970      7.465693639110
      55   19  1   0.96400      1.170026792020     -1.736154947790     12.106157461600
      56   19  2  -0.48200      1.482581138220     -1.430750900470     11.772184186400
      57   19  2  -0.48200      0.857472445825     -2.041558995120     12.440130736800
      58   20  1   0.96400    -10.071929999900     -1.362776769540    -17.379579683900
      59   20  2  -0.48200     -9.869044432350     -1.606865793510    -16.930404890700
      60   20  2  -0.48200    -10.274815567500     -1.118687745570    -17.828754477100
      61   21  1   0.96400     14.553924566500    -17.054421671500      6.541106478240
      62   21  2  -0.48200     14.634149685000    -16.812497548300      6.053729161380
      63   21  2  -0.48200     14.473699448100    -17.296345794700      7.028483795100
      64   22  1   0.96400      3.193623636720     -8.269363421710     11.155869444400
      65   22  2  -0.48200      3.483509884600     -8.248947551650     11.622826782400
      66   22  2  -0.48200      2.903737388850     -8.289779291760     10.688912106300
      67   23  1   0.96400     -5.678220546770     -8.950211295150      6.169515900700
      68   23  2  -0.48200     -5.837676380260     -9.166794333590      6.649271697560
      69   23  2  -0.48200     -5.518764713270     -8.733628256710      5.689760103830
      70   24  1   0.96400     -2.872293111620     -7.083534474130     17.822045604100
      71   24  2  -0.48200     -2.890764755170     -6.547726270160     17.944798880900
      72   24  2  -0.48200     -2.853821468060     -7.619342678090     17.699292327400
      73   25  1   0.96400    -15.861824317900      1.508917151420    -16.453029920300
      74   25  2  -0.48200    -15.858866337000      2.002412187490    -16.695834161900
      75   25  2  -0.48200    -15.864782298800      1.015422115350    -16.210225678700
      76   26  1   0.96400    -17.182970574300    -19.098264816000      1.178226512950
      77   26  2  -0.48200    -17.456990347000    -19.002833884700      1.645458897880
      78   26  2  -0.48200    -16.908950801600    -19.193695747300      0.710994128014
      79   27  1   0.96400     -7.908669554140    -12.813271600200     10.580112600400
      80   27  2  -0.48200     -7.757762208870    -13.217533307600     10.239085555900
      81   27  2  -0.48200     -8.059576899410    -12.409009892900     10.921139644900
      82   28  1   0.96400      9.925781683270     -3.683978733680     10.624219807000
      83   28  2  -0.48200      9.693205204480     -4.052360177850     10.959932918300
      84   28  2  -0.48200     10.158358162100     -3.315597289500     10.288506695700
      85   29  1   0.96400     15.299922232300    -15.016040406300     -9.578665894130
      86   29  2  -0.48200     15.136204558000    -15.260986688800    -10.043098711400
      87   29  2  -0.48200     15.463639906600    -14.771094123700     -9.114233076830
      88   30  1   0.96400     -8.991307784000      2.647908002550      7.012178699260
      89   30  2  -0.48200     -9.468060496480      2.700267866320      6.742984910700
      90   30  2  -0.48200     -8.514555071510      2.595548138770      7.281372487830
      91   31  1   0.96400    -14.642457449000      5.692635706580    -15.174263083200
      92   31  2  -0.48200    -14.734407682300      6.233045235480    -15.129511595200
      93   31  2  -0.48200    -14.550507215700      5.152226177690    -15.219014571200
      94   32  1   0.96400     11.323501755700    -19.128946352800      5.915706477080
      95   32  2  -0.48200     11.709363025400    -19.441058260943      6.152766042010
      96   32  2  -0.48200     10.937640486000    -18.816834444600      5.678646912150
      97   33  1   0.96400    -11.772114563100     -4.944667291710      6.971697462350
      98   33  2  -0.48200    -12.218527407300     -4.945679282810      7.292967673340
      99   33  2  -0.48200    -11.325701719000     -4.943655300610      6.650427251360
     100   34  1   0.96400      7.389936544010    -17.789486581100     16.642206875500
     101   34  2  -0.48200      7.931207542480    -17.820759456700     16.734660720500
     102   34  2  -0.48200      6.848665545530    -17.758213705500     16.549753030400
     103   35  1   0.96400      5.244144762480     -6.464203820980      8.612906517890
     104   35  2  -0.48200      5.599158326330     -6.055211928230      8.708776227110
     105   35  2  -0.48200      4.889131198630     -6.873195713730      8.517036808680
     106   36  1   0.96400     13.729330645100     18.816139246700    -14.145270752500
     107   36  2  -0.48200     13.641180404200     18.419176234700    -14.515608304200
     108   36  2  -0.48200     13.817480886100     19.213102258600    -13.774933200900
     109   37  1   0.96400     -8.409772244910    -13.662321147500      1.699830524930
     110   37  2  -0.48200     -8.363132429370    -13.481440749300      1.182523063970
     111   37  2  -0.48200     -8.456412060450    -13.843201545700      2.217137985890
     112   38  1   0.96400     -7.322181529780     -9.667794357800     16.587992022100
     113   38  2  -0.48200     -7.601431869340     -9.693828042750     16.114873120500
     114   38  2  -0.48200     -7.042931190230     -9.641760672850     17.061110923800
     115   39  1   0.96400     14.204391417400    -12.276918243400    -12.670555699800
     116   39  2  -0.48200     14.377568003400    -11.857523172000    -12.359721911100
     117   39  2  -0.48200     14.031214831400    -12.696313314700    -12.981389488400
     118   40  1   0.96400      0.443337650531     16.186044253300     15.403001876600
     119   40  2  -0.48200      0.876709382475     16.245309254300     15.069570322000
     120   40  2  -0.48200      0.009965918587     16.126779252300     15.736433431200
     121   41  1   0.96400      1.550040816480     -2.400145949160     -1.354445794550
     122   41  2  -0.48200      1.453559598400     -1.861068307860     -1.405305122170
     123   41  2  -0.48200      1.646522034560     -2.939223590460     -1.303586466930
     124   42  1   0.96400    -16.964788464200     -1.425373235040    -17.835820718300
     125   42  2  -0.48200    -16.840398768300     -1.644242148410    -17.346818057400
     126   42  2  -0.48200    -17.089178160000     -1.206504321670    -18.324823379100
     127   43  1   0.96400    -10.911139203100     17.785349206800     -4.767089237920
     128   43  2  -0.48200    -11.299120707000     17.654155525700     -5.134184008690
     129   43  2  -0.48200    -10.523157699300     17.916542887900     -4.399994467150
     130   44  1   0.96400     12.643445166000      9.331540038680      1.767183728680
     131   44  2  -0.48200     13.109532048100      9.622314539770      1.793889680370
     132   44  2  -0.48200     12.177358283900      9.040765537580      1.740477776990
     133   45  1   0.96400    -10.801715465300    -10.381770076600    -18.367965465500
     134   45  2  -0.48200    -10.503853859000    -10.314159498700    -18.825357281400
     135   45  2  -0.48200    -11.099577071700    -10.449380654400    -17.910573649600
     136   46  1   0.96400     -5.460044007090     11.359444328100     -5.746992600780
     137   46  2  -0.48200     -5.423402257830     11.135994579900     -6.248218689700
     138   46  2  -0.48200     -5.496685756350     11.582894076400     -5.245766511860
     139   47  1   0.96400     10.688616344200     10.348110534800      4.232944044270
     140   47  2  -0.48200     10.299359913200     10.339954977300      3.844468925580
     141   47  2  -0.48200     11.077872775100     10.356266092200      4.621419162960
     142   48  1   0.96400     -5.860456921450     -6.382512246380     -8.494983411950
     143   48  2  -0.48200     -5.538545791530     -6.167690555570     -8.104183123320
     144   48  2  -0.48200     -6.182368051360     -6.597333937190     -8.885783700580
     145   49  1   0.96400      0.050598158978     -0.410139014061    -14.307345332700
     146   49  2  -0.48200      0.088435166324     -0.126864775776    -13.837426119600
     147   49  2  -0.48200      0.012761151631     -0.693413252346    -14.777264545700
     148   50  1   0.96400    -12.175585137700     17.426005311200     -9.206082920720
     149   50  2  -0.48200    -12.461538982500     16.956246473300     -9.198530908440
     150   50  2  -0.48200    -11.889631292800     17.895764149000     -9.213634933000
     151   51  1   0.96400     -2.660251608990      5.706819498510      8.947778131390
     152   51  2  -0.48200     -3.174988653760      5.882036627410      9.030511029880
     153   51  2  -0.48200     -2.145514564230      5.531602369620      8.865045232900
     154   52  1   0.96400     13.404871930000      3.592931257390     17.487446796900
     155   52  2  -0.48200     13.676869968100      3.152275405430     17.672755964000
     156   52  2  -0.48200     13.132873891900      4.033587109350     17.302137629900
     157   53  1   0.96400      1.863524988870    -10.502958309000     -5.490171535350
     158   53  2  -0.48200      2.124756485880    -10.030706724100     -5.384168962020
     159   53  2  -0.48200      1.602293491860    -10.975209893900     -5.596174108680
     160   54  1   0.96400     -4.553568167450      1.017383980840     -0.879050505910
     161   54  2  -0.48200     -4.469743939020      0.953568512579     -1.418866293690
     162   54  2  -0.48200     -4.637392395890      1.081199449090     -0.339234718129
     163   55  1   0.96400     -4.047725639690    -13.444320929300     -3.267562522890
     164   55  2  -0.48200     -3.976378892840    -13.970480524500     -3.124154984270
     165   55  2  -0.48200     -4.119072386550    -12.918161334200     -3.410970061520
     166   56  1   0.96400    -18.007893866300     -5.684043588210    -15.184695594100
     167   56  2  -0.48200    -18.415138820800     -5.563566353840    -14.835214860600
     168   56  2  -0.48200    -17.600648911900     -5.804520822570    -15.534176327500
     169   57  1   0.96400     -5.072825079920     -4.717510956660     -2.865900125010
     170   57  2  -0.48200     -5.449898386260     -5.064042772090     -2.665322403040
     171   57  2  -0.48200     -4.695751773590     -4.370979141240     -3.066477846980
     172   58  1   0.96400     -7.654599052680      6.789965214770     -9.650014557950
     173   58  2  -0.48200     -7.668860691610      7.244481496600     -9.340641716210
     174   58  2  -0.48200     -7.640337413750      6.335448932940     -9.959387399700
     175   59  1   0.96400     -8.494515360800      7.880995892500      8.549285804450
     176   59  2  -0.48200     -8.219825214320      7.660853034190      8.971875966850
     177   59  2  -0.48200     -8.769205507280      8.101138750810      8.126695642040
     178   60  1   0.96400    -18.532646916900    -10.759906143500      6.131298163320
     179   60  2  -0.48200    -19.044717132000    -10.595851657500      6.246927832690
     180   60  2  -0.48200    -18.020576701800    -10.923960629500      6.015668493950
     181   61  1   0.96400      3.326312413120      6.767678298180     -3.857086612060
     182   61  2  -0.48200      3.485594026810      6.795717226800     -4.382770153760
     183   61  2  -0.48200      3.167030799430      6.739639369560     -3.331403070350
     184   62  1   0.96400     -6.789738420870     14.176060739400     -1.563694709600
     185   62  2  -0.48200     -6.824390083690     14.458103508100     -2.034599306030
     186   62  2  -0.48200     -6.755086758040     13.894017970800     -1.092790113170
     187   63  1   0.96400     -9.169968669960      2.904869971230    -18.686015806500
     188   63  2  -0.48200     -9.395386711350      3.372372845590    -18.868026160900
     189   63  2  -0.48200     -8.944550628570      2.437367096860    -18.504005452200
     190   64  1   0.96400     13.175962998200     18.387904998000    -17.853464329800
     191   64  2  -0.48200     13.193348696100     17.882413405400    -17.637418067800
     192   64  2  -0.48200     13.158577300300     18.893396590600    -18.069510591700
     193   65  1   0.96400      3.031488995190      1.452826420700      2.960257417930
     194   65  2  -0.48200      2.930395497830      1.686816772740      2.472888338130
     195   65  2  -0.48200      3.132582492550      1.218836068650      3.447626497720
     196   66  1   0.96400      0.848728146049     16.058396523500     11.116344403400
     197   66  2  -0.48200      1.263067888070     16.330681193200     10.878261147400
     198   66  2  -0.48200      0.434388404029     15.786111853700     11.354427659500
     199   67  1   0.96400      1.894570186370     -5.227270411220     -4.580316833950
     200   67  2  -0.48200      2.442319513940     -5.261883344680     -4.544643048190
     201   67  2  -0.48200      1.346820858810     -5.192657477750     -4.615990619720
     202   68  1   0.96400    -14.956212474400     -1.546559547880     -6.438449775130
     203   68  2  -0.48200    -15.482951191900     -1.514647686010     -6.283440238260
     204   68  2  -0.48200    -14.429473756800     -1.578471409750     -6.593459312000
     205   69  1   0.96400      6.826471274060    -11.977049388900    -16.591066982800
     206   69  2  -0.48200      6.896099746940    -11.499960775100    -16.855714541500
     207   69  2  -0.48200      6.756842801190    -12.454138002800    -16.326419424100
     208   70  1   0.96400     -8.763653279610      1.039139357280    -10.450397079300
     209   70  2  -0.48200     -8.388563971520      0.645220240353    -10.368937026000
     210   70  2  -0.48200     -9.138742587700      1.433058474200    -10.531857132500
     211   71  1   0.96400     -3.323433802010    -15.536426081600     -7.687802188140
     212   71  2  -0.48200     -3.352697243900    -15.927185798300     -8.073743239020
     213   71  2  -0.48200     -3.294170360110    -15.145666364900     -7.301861137250
     214   72  1   0.96400     15.950392138100      0.624258368190     -6.750143491920
     215   72  2  -0.48200     15.745431605200      0.862970205125     -6.299025060860
     216   72  2  -0.48200     16.155352671100      0.385546531254     -7.201261922980
     217   73  1   0.96400     -5.775630775710    -12.998354177200    -12.591677098000
     218   73  2  -0.48200     -6.243743861960    -13.215943290600    -12.401874262800
     219   73  2  -0.48200     -5.307517689470    -12.780765063800    -12.781479933100
     220   74  1   0.96400     16.913329676600     -2.223504098410    -17.241408185600
     221   74  2  -0.48200     16.779287434200     -2.555105279540    -17.659227924200
     222   74  2  -0.48200     17.047371919000     -1.891902917280    -16.823588447100
     223   75  1   0.96400     -8.941555003770     13.458979862800     -5.631086135030
     224   75  2  -0.48200     -8.523954203310     13.190935423200     -5.393890540990
     225   75  2  -0.48200     -9.359155804240     13.727024302400     -5.868281729080
     226   76  1   0.96400     16.477029987000      6.863731574930      0.392057053037
     227   76  2  -0.48200     16.976718524300      6.634117193960      0.382644200218
     228   76  2  -0.48200     15.977341449800      7.093345955900      0.401469905856
     229   77  1   0.96400     16.406064722200    -16.422995580100     16.182197718100
     230   77  2  -0.48200     16.044398545100    -16.697402279600     15.871716576100
     231   77  2  -0.48200     16.767730899400    -16.148588880600     16.492678860100
     232   78  1   0.96400    -10.236999812700    -13.684114076700    -18.234304799500
     233   78  2  -0.48200    -10.727490368100    -13.932696240700    -18.223083267000
     234   78  2  -0.48200     -9.746509257340    -13.435531912700    -18.245526332100
     235   79  1   0.96400    -15.060833403700    -12.592547850800     13.755716248800
     236   79  2  -0.48200    -15.001484179800    -12.457709514500     14.285618402700
     237   79  2  -0.48200    -15.120182627600    -12.727386187100     13.225814094900
     238   80  1   0.96400    -18.778794656300     -3.354038178850     12.513661607400
     239   80  2  -0.48200    -19.170504248000     -2.996218879710     12.658675210000
     240   80  2  -0.48200    -18.387085064600     -3.711857477990     12.368648004800
     241   81  1   0.96400     11.806777187300    -17.232482506000     16.413465883100
     242   81  2  -0.48200     11.515013846800    -16.847360316600     16.150682603000
     243   81  2  -0.48200     12.098540527800    -17.617604695500     16.676249163300
     244   82  1   0.96400      6.580425690960     -3.565248151450    -12.280345857800
     245   82  2  -0.48200      6.919870780550     -3.425989269780    -12.690082352400
     246   82  2  -0.48200      6.240980601360     -3.704507033130    -11.870609363100
     247   83  1   0.96400      3.089240441550     14.342285242700     -7.134057729580
     248   83  2  -0.48200      2.940731733970     14.723352558300     -7.501797943170
     249   83  2  -0.48200      3.237749149120     13.961217927000     -6.766317515990
     250   84  1   0.96400     -6.414239961960    -18.151854146200     12.195917741600
     251   84  2  -0.48200     -6.740539864600    -17.918690651700     11.819536075800
     252   84  2  -0.48200     -6.087940059310    -18.385017640600     12.572299407400
     253   85  1   0.96400     -0.500703747175     -9.083208431710     15.345387931800
     254   85  2  -0.48200     -0.358021639977     -8.552568455430     15.321659639600
     255   85  2  -0.48200     -0.643385854373     -9.613848408000     15.369116224100
     256   86  1   0.96400     -4.882847502710    -13.846207277800      3.971155204200
     257   86  2  -0.48200     -4.607803416070    -14.071057123300      4.391028158050
     258   86  2  -0.48200     -5.157891589340    -13.621357432300      3.551282250340
     259   87  1   0.96400    -14.205894350300     -8.736412049810     16.572626995600
     260   87  2  -0.48200    -14.353909652200     -8.208157218940     16.533405776200
     261   87  2  -0.48200    -14.057879048400     -9.264666880670     16.611848215100
     262   88  1   0.96400      3.800888222000     11.910452868000      7.941029983480
     263   88  2  -0.48200      3.264892495830     11.959889458200      7.828049431720
     264   88  2  -0.48200      4.336883948170     11.861016277800      8.054010535240
     265   89  1   0.96400     13.083861124300      2.833637194520      5.494326835820
     266   89  2  -0.48200     12.716013514800      3.001103860920      5.867345671590
     267   89  2  -0.48200     13.451708733800      2.666170528120      5.121308000050
     268   90  1   0.96400     -9.388544368310    -12.076444566400     -1.840032523290
     269   90  2  -0.48200     -9.198930955060    -11.562885050200     -1.892979447380
     270   90  2  -0.48200     -9.578157781560    -12.590004082700     -1.787085599210
     271   91  1   0.96400     18.304733108100    -11.502633876500     11.653708034900
     272   91  2  -0.48200     18.302857578900    -11.267284681800     11.156609212800
     273   91  2  -0.48200     18.306608637300    -11.737983071200     12.150806857000
     274   92  1   0.96400    -11.306591275000     -6.700318472820     17.519577738400
     275   92  2  -0.48200    -11.315082698200     -6.342985132680     17.937597809400
     276   92  2  -0.48200    -11.298099851800     -7.057651812960     17.101557667400
     277   93  1   0.96400     12.411937232800    -15.885190634400     -7.691966406100
     278   93  2  -0.48200     12.521031668000    -15.355838721400     -7.793873012010
     279   93  2  -0.48200     12.302842797500    -16.414542547500     -7.590059800190
     280   94  1   0.96400    -13.913030839000     -4.020120033350      4.211804511180
     281   94  2  -0.48200    -13.698202807200     -3.514874959290      4.244612008760
     282   94  2  -0.48200    -14.127858870800     -4.525365107420      4.178997013610
     283   95  1   0.96400    -17.123288181900     15.805691024300     10.169505946900
     284   95  2  -0.48200    -17.192837323700     15.712046431600     10.706994185900
     285   95  2  -0.48200    -17.053739040100     15.899335617100      9.632017707830
     286   96  1   0.96400      8.874910949440    -12.791608826100     -4.668287087240
     287   96  2  -0.48200      8.719070550410    -13.080564061800     -4.227017734370
     288   96  2  -0.48200      9.030751348470    -12.502653590300     -5.109556440100
     289   97  1   0.96400     -0.975571032286      5.397936833970     -9.288639956820
     290   97  2  -0.48200     -0.875918473432      4.984561723820     -8.939798465850
     291   97  2  -0.48200     -1.075223591140      5.811311944120     -9.637481447790
     292   98  1   0.96400     -2.857465822810      9.399103452400    -11.657993152400
     293   98  2  -0.48200     -2.542823247670      9.591456059490    -12.066037910300
     294   98  2  -0.48200     -3.172108397950      9.206750845320    -11.249948394500
     295   99  1   0.96400     14.924480449800      6.830242891860    -12.808594644400
     296   99  2  -0.48200     15.308526502600      6.764677653040    -13.196808282400
     297   99  2  -0.48200     14.540434397000      6.895808130680    -12.420381006300
     298  100  1   0.96400    -12.611272143100      2.767219656720    -16.788220320100
     299  100  2  -0.48200    -12.605907584800      3.285704145710    -16.971646207600
     300  100  2  -0.48200    -12.616636701500      2.248735167730    -16.604794432700
     301  101  1   0.96400     -9.485331988130      6.385477935280     -5.632363363750
     302  101  2  -0.48200     -9.341923556050      6.829371663690     -5.923726332390
     303  101  2  -0.48200     -9.628740420210      5.941584206880     -5.341000395120
     304  102  1   0.96400     -4.533242085950     11.226186695500     -1.935272837140
     305  102  2  -0.48200     -4.690083277970     10.981089174500     -1.468552315090
     306  102  2  -0.48200     -4.376400893940     11.471284216400     -2.401993359200
     307  103  1   0.96400    -14.117051373600    -19.090782966100     -1.480516156220
     308  103  2  -0.48200    -14.142483465700    -18.966943585100     -0.945243313266
     309  103  2  -0.48200    -14.091619281500    -19.214622347100     -2.015788999180
     310  104  1   0.96400     11.185044221200     12.972161109500     -3.658291800410
     311  104  2  -0.48200     11.037708169200     12.485184872200     -3.449374993870
     312  104  2  -0.48200     11.332380273300     13.459137346800     -3.867208606950
     313  105  1   0.96400    -14.678819506600     12.473906549000     -3.436597164780
     314  105  2  -0.48200    -15.200003681000     12.614804856900     -3.331646113450
     315  105  2  -0.48200    -14.157635332200     12.333008241100     -3.541548216110
     316  106  1   0.96400     -7.512406463780     -9.780920375470     -6.681867353170
     317  106  2  -0.48200     -7.689475461270    -10.301386853800     -6.698029501000
     318  106  2  -0.48200     -7.335337466290     -9.260453897100     -6.665705205340
     319  107  1   0.96400      8.647611611610    -18.540071562100      0.297496442444
     320  107  2  -0.48200      8.315934330830    -18.231383026700      0.609268104917
     321  107  2  -0.48200      8.979288892400    -18.848760097500     -0.014275220029
     322  108  1   0.96400    -14.488116331500     15.728038050200     12.734354348700
     323  108  2  -0.48200    -14.202334410300     15.494622548800     13.142209589200
     324  108  2  -0.48200    -14.773898252800     15.961453551600     12.326499108200
     325  109  1   0.96400    -17.890182898600      9.374242296490     -9.316666869760
     326  109  2  -0.48200    -18.011530163500      9.614419162720     -9.796343755000
     327  109  2  -0.48200    -17.768835633700      9.134065430260     -8.836989984530
     328  110  1   0.96400    -10.548842359100      2.061545051110     15.176763193600
     329  110  2  -0.48200    -10.304509005100      2.318827719910     14.756517027200
     330  110  2  -0.48200    -10.793175713200      1.804262382310     15.597009360100
     331  111  1   0.96400    -16.774418631000    -16.956357010300     15.067484787200
     332  111  2  -0.48200    -16.678327110700    -16.488665119600     14.794481646000
     333  111  2  -0.48200    -16.870510151300    -17.424048901000     15.340487928400
     334  112  1   0.96400    -18.163443061800    -13.101383132100     -7.806269844590
     335  112  2  -0.48200    -17.798666963100    -12.737528583800     -7.613790584710
     336  112  2  -0.48200    -18.528219160500    -13.465237680400     -7.998749104470
     337  113  1   0.96400     18.990043786800     12.516889947800     -7.811940914840
     338  113  2  -0.48200     18.799265204800     12.167527078400     -7.432402882340
     339  113  2  -0.48200     19.180822368800     12.866252817200     -8.191478947330
     340  114  1   0.96400      9.715759886340    -10.089306573300    -17.730949603000