LAMMPS Atom File

         3000 atoms
         2000 bonds
         1000 angles
           0 dihedrals
           0 impropers

           2 atom types
           1 bond types
           1 angle types

         0.0  39.6198292336 xlo xhi
         0.0  39.6198292336 ylo yhi
         0.0  39.6198292336 zlo zhi

Masses

         1    1.0e-20
         2   14.00670

Atoms

       1    1  1   0.96400    -11.158910104100     13.623924966400     -0.694087500955
       2    1  2  -0.48200    -11.375184450900     14.128466720000     -0.659984338077
       3    1  2  -0.48200    -10.942635757300     13.119383212700     -0.728190663834
       4    2  1   0.96400      6.625579284550      0.119606439863     -1.244582306240
       5    2  2  -0.48200      6.641630024070      0.566931105316     -0.924984093737
       6    2  2  -0.48200      6.609528545030     -0.327718225590     -1.564180518750
       7    3  1   0.96400     -9.484333475980    -14.614503782000     16.276178476600
       8    3  2  -0.48200     -9.325151591500    -15.140186909300     16.247571182200
       9    3  2  -0.48200     -9.643515360450    -14.088820654700     16.304785771000
      10    4  1   0.96400     16.182009359700    -13.679114639300     -3.713434858470
      11    4  2  -0.48200     16.667715335400    -13.863583541100     -3.532988385920
      12    4  2  -0.48200     15.696303384100    -13.494645737400     -3.893881331010
      13    5  1   0.96400     -8.717544438710     18.510160705900     -0.252462779241
      14    5  2  -0.48200     -8.459328044590     18.057313348500     -0.077095836287
      15    5  2  -0.48200     -8.975760832840     18.963008063300     -0.427829722195
      16    6  1   0.96400     -5.447926861530     14.893667107600    -17.370177016700
      17    6  2  -0.48200     -4.905447876120     14.804050365700    -17.383792815100
      18    6  2  -0.48200     -5.990405846940     14.983283849400    -17.356561218200
      19    7  1   0.96400     16.450193869700     -4.861420857160      7.085791964940
      20    7  2  -0.48200     16.826055976300     -4.959227608770      7.475229400420
      21    7  2  -0.48200     16.074331763100     -4.763614105550      6.696354529460
      22    8  1   0.96400     11.017952077200     13.016663554800    -19.276903231600
      23    8  2  -0.48200     11.508157597300     12.792905784400    -19.166762374900
      24    8  2  -0.48200     10.527746557200     13.240421325200    -19.387044088300
      25    9  1   0.96400     11.469208781400     -8.234477167250     16.484779756100
      26    9  2  -0.48200     11.381441840000     -8.749726333720     16.313562758000
      27    9  2  -0.48200     11.556975722800     -7.719228000770     16.655996754200
      28   10  1   0.96400      0.721050540134     -1.775488296710    -10.506242753200
      29   10  2  -0.48200      1.076362253120     -2.186791566540    -10.590404542900
      30   10  2  -0.48200      0.365738827147     -1.364185026880    -10.422080963600
      31   11  1   0.96400     -8.602223083330     -3.303678621080      5.375087284660
      32   11  2  -0.48200     -9.101430207280     -3.527236821740      5.432654448200
      33   11  2  -0.48200     -8.103015959380     -3.080120420420      5.317520121120
      34   12  1   0.96400    -14.205380853200    -11.737787236600      8.815602127550
      35   12  2  -0.48200    -13.764129855600    -11.616172936700      9.120573469210
      36   12  2  -0.48200    -14.646631850700    -11.859401536600      8.510630785890
      37   13  1   0.96400    -15.882040749100     -7.788996919870     15.019493959000
      38   13  2  -0.48200    -16.072818828100     -7.276205488880     14.963380922400
      39   13  2  -0.48200    -15.691262670100     -8.301788350860     15.075606995600
      40   14  1   0.96400     14.556891364800     15.251497648700    -19.134956892500
      41   14  2  -0.48200     15.035416748500     15.011626947400    -19.008562653000
      42   14  2  -0.48200     14.078365981100     15.491368350100    -19.261351132000
      43   15  1   0.96400    -17.045837689000    -17.238279354000      0.152223510548
      44   15  2  -0.48200    -17.483591412200    -17.377387069600     -0.150300407966
      45   15  2  -0.48200    -16.608083965800    -17.099171638300      0.454747429062
      46   16  1   0.96400     -8.944573599090     -5.698376571190     13.100497033500
      47   16  2  -0.48200     -8.833585639560     -6.072205604120     13.488354645200
      48   16  2  -0.48200     -9.055561558620     -5.324547538260     12.712639421800
      49   17  1   0.96400      0.396141008727     -4.875701284320     15.462838368500
      50   17  2  -0.48200     -0.072851382416     -4.654119124260     15.645724900000
      51   17  2  -0.48200      0.865133399870     -5.097283444370     15.279951837100
      52   18  1   0.96400     15.087464387200    -18.614391874400      4.857899665300
      53   18  2  -0.48200     15.294571395800    -18.309483242300      4.449687204640
      54   18  2  -0.48200     14.880357378600    -18.919300506500      5.266112125970
      55   19  1   0.96400      3.880322541460     -7.721383540650     12.134686867600
      56   19  2  -0.48200      4.367743495250     -7.935852848270     12.272250416200
      57   19  2  -0.48200      3.392901587670     -7.506914233020     11.997123319000
      58   20  1   0.96400     -3.111308852940     -9.468348722090     16.156725270200
      59   20  2  -0.48200     -3.071518686420     -8.919796578610     16.159424998300
      60   20  2  -0.48200     -3.151099019460    -10.016900865600     16.154025542200
      61   21  1   0.96400    -14.467404790000      0.112105998052    -18.342695106200
      62   21  2  -0.48200    -14.982886955800      0.180266724163    -18.521949819100
      63   21  2  -0.48200    -13.951922624200      0.043945271941    -18.163440393200
      64   22  1   0.96400    -16.848979112700     18.324681830900     -1.123013425620
      65   22  2  -0.48200    -17.273237016600     18.098831035900     -1.390401999320
      66   22  2  -0.48200    -16.424721208800     18.550532626000     -0.855624851909
      67   23  1   0.96400     -7.059405325010    -12.088141557600     11.999526092800
      68   23  2  -0.48200     -7.550189944050    -12.336385903300     12.001807007400
      69   23  2  -0.48200     -6.568620705960    -11.839897212000     11.997245178300
      70   24  1   0.96400     10.828152049700     -3.256741990120      8.956539193110
      71   24  2  -0.48200     10.376966155500     -3.277554025510      9.270383339320
      72   24  2  -0.48200     11.279337943800     -3.235929954730      8.642695046900
      73   25  1   0.96400     15.808901425000    -16.586225391800     -6.215051116410
      74   25  2  -0.48200     15.825595616300    -16.762363945000     -6.735816432130
      75   25  2  -0.48200     15.792207233700    -16.410086838700     -5.694285800690
      76   26  1   0.96400    -12.122311216600      0.327788144720      2.928046754580
      77   26  2  -0.48200    -11.828373528600     -0.077509253843      3.155719006520
      78   26  2  -0.48200    -12.416248904600      0.733085543284      2.700374502650
      79   27  1   0.96400     12.540007158100     -8.269021830840    -12.788001235900
      80   27  2  -0.48200     12.829437213800     -8.096135753040    -12.353443245600
      81   27  2  -0.48200     12.250577102400     -8.441907908640    -13.222559226200
      82   28  1   0.96400     14.498800882400     17.852185225800     11.918656375100
      83   28  2  -0.48200     14.321719432700     17.694615317700     12.414956570800
      84   28  2  -0.48200     14.675882332000     18.009755133900     11.422356179500
      85   29  1   0.96400    -10.797888840700     -6.401567650110     10.105608525200
      86   29  2  -0.48200    -10.981574873300     -6.636322462680     10.567831003400
      87   29  2  -0.48200    -10.614202808200     -6.166812837550      9.643386046910
      88   30  1   0.96400      8.944342659810     18.194718929000     17.119193254700
      89   30  2  -0.48200      9.426380925770     18.090664781800     17.362733486700
      90   30  2  -0.48200      8.462304393850     18.298773076100     16.875653022700
      91   31  1   0.96400     13.767074454900    -17.346274227300    -14.694689809700
      92   31  2  -0.48200     14.060228734300    -17.346574785500    -14.229329220300
      93   31  2  -0.48200     13.473920175600    -17.345973669200    -15.160050399100
      94   32  1   0.96400    -10.471232669900     -4.396745431420     16.358252283800
      95   32  2  -0.48200    -10.298404035400     -4.344396912580     16.877761567400
      96   32  2  -0.48200    -10.644061304300     -4.449093950260     15.838743000300
      97   33  1   0.96400     15.239867960700    -11.975972871500    -12.876214332800
      98   33  2  -0.48200     15.325105601800    -11.616806468000    -12.468496245000
      99   33  2  -0.48200     15.154630319600    -12.335139274900    -13.283932420700
     100   34  1   0.96400      5.931201425250     14.225237910300     19.486064453300
     101   34  2  -0.48200      6.314924299590     14.576732236300     19.307995662000
     102   34  2  -0.48200      5.547478550900     13.873743584200     19.664133244600
     103   35  1   0.96400      3.347929076080      1.763860572000     -2.135206973740
     104   35  2  -0.48200      2.995251839360      1.469141591280     -2.437298829140
     105   35  2  -0.48200      3.700606312810      2.058579552710     -1.833115118340
     106   36  1   0.96400    -19.404317104600     -3.350896837020    -18.203220114900
     107   36  2  -0.48200    -19.833911062768     -3.174179823730    -18.497702929900
     108   36  2  -0.48200    -18.974723146400     -3.527613850310    -17.908737300000
     109   37  1   0.96400    -11.631027935800     15.338298429800     -4.201164026630
     110   37  2  -0.48200    -11.620594399800     15.401636966800     -4.747405155670
     111   37  2  -0.48200    -11.641461471900     15.274959892800     -3.654922897590
     112   38  1   0.96400     16.212897742100     11.102508813300      2.584066175580
     113   38  2  -0.48200     16.190521072800     10.874098082000      2.084238382720
     114   38  2  -0.48200     16.235274411300     11.330919544600      3.083893968440
     115   39  1   0.96400    -13.863745036400     -6.197601939320     17.986992036100
     116   39  2  -0.48200    -13.968437118300     -5.681824742220     17.827262730900
     117   39  2  -0.48200    -13.759052954500     -6.713379136410     18.146721341300
     118   40  1   0.96400     11.908166734000     13.279492877100      7.563316021990
     119   40  2  -0.48200     11.675219106400     13.615828582700      7.930894171370
     120   40  2  -0.48200     12.141114361600     12.943157171400      7.195737872610
     121   41  1   0.96400     -5.367616184760     -6.886200034280     -7.110929611800
     122   41  2  -0.48200     -4.966096389980     -6.610096470990     -7.365976032540
     123   41  2  -0.48200     -5.769135979550     -7.162303597570     -6.855883191050
     124   42  1   0.96400    -16.284999661800     16.162034939400     -8.652846296030
     125   42  2  -0.48200    -16.181552569500     16.127833829700     -8.113746135410
     126   42  2  -0.48200    -16.388446754100     16.196236049100     -9.191946456650
     127   43  1   0.96400     -0.538613386156      4.448355418800     10.414562737300
     128   43  2  -0.48200     -0.081461607091      4.659906360470     10.635375893500
     129   43  2  -0.48200     -0.995765165221      4.236804477130     10.193749581000
     130   44  1   0.96400     18.412194958400      5.193105395280     15.728741102700
     131   44  2  -0.48200     18.128600986100      5.475319524480     16.106139624300
     132   44  2  -0.48200     18.695788930700      4.910891266070     15.351342581000
     133   45  1   0.96400     -2.834978542200      3.821762524980     -0.616837862700
     134   45  2  -0.48200     -2.505295419050      3.882704486800     -1.052836848480
     135   45  2  -0.48200     -3.164661665350      3.760820563150     -0.180838876924
     136   46  1   0.96400     -3.119031878200    -11.508786238000     -3.351050034410
     137   46  2  -0.48200     -3.403571972730    -11.875163034400     -3.055575877080
     138   46  2  -0.48200     -2.834491783670    -11.142409441500     -3.646524191730
     139   47  1   0.96400    -19.532733491700     -9.581797868940    -15.409220012500
     140   47  2  -0.48200    -19.768905119200     -9.673776387560    -14.921098189200
     141   47  2  -0.48200    -19.296561864100     -9.489819350320    -15.897341835900
     142   48  1   0.96400     -9.302832636410      2.690526897550     -4.043895419360
     143   48  2  -0.48200     -9.454567645400      2.286844090060     -3.702550025390
     144   48  2  -0.48200     -9.151097627420      3.094209705030     -4.385240813340
     145   49  1   0.96400    -11.279450073100      4.233249741400     -9.741279068730
     146   49  2  -0.48200    -11.731874671400      4.363860453850    -10.025449483500
     147   49  2  -0.48200    -10.827025474700      4.102639028950     -9.457108653970
     148   50  1   0.96400     -3.417115773210      9.863448689010      4.081125863680
     149   50  2  -0.48200     -3.813274627380     10.141730277500      4.342119196530
     150   50  2  -0.48200     -3.020956919050      9.585167100550      3.820132530830
     151   51  1   0.96400     18.817130524100    -14.156791781800     10.269761733200
     152   51  2  -0.48200     18.884343965100    -14.645802379500     10.512353960400
     153   51  2  -0.48200     18.749917083200    -13.667781184100     10.027169506100
     154   52  1   0.96400     -6.030023027810     14.309565777900     -1.601995392060
     155   52  2  -0.48200     -5.574440771820     14.143986480400     -1.861857479110
     156   52  2  -0.48200     -6.485605283800     14.475145075300     -1.342133305020
     157   53  1   0.96400    -10.203887125600      2.566470450930    -16.717341395900
     158   53  2  -0.48200    -10.015868887900      2.166533612830    -16.389927792300
     159   53  2  -0.48200    -10.391905363300      2.966407289030    -17.044754999500
     160   54  1   0.96400     15.993311447100     18.608337031400     18.145892654900
     161   54  2  -0.48200     16.134260768600     19.104338453700     17.954539897300
     162   54  2  -0.48200     15.852362125600     18.112335609100     18.337245412500
     163   55  1   0.96400      4.759873813160      2.264161792310      1.667569785290
     164   55  2  -0.48200      4.284202495260      2.030804964580      1.519984595370
     165   55  2  -0.48200      5.235545131050      2.497518620030      1.815154975220
     166   56  1   0.96400      0.306483400529     16.663794914700     11.984782002300
     167   56  2  -0.48200      0.327324440215     16.612434495700     12.531981927800
     168   56  2  -0.48200      0.285642360843     16.715155333700     11.437582076900
     169   57  1   0.96400      2.305387892110     -8.171662258760     -2.169281238090
     170   57  2  -0.48200      1.880243661480     -8.452685095390     -2.376110995260
     171   57  2  -0.48200      2.730532122750     -7.890639422130     -1.962451480920
     172   58  1   0.96400     -9.787185719910      0.805257145191     -6.825381794350
     173   58  2  -0.48200    -10.312875787000      0.748998752059     -6.976989665410
     174   58  2  -0.48200     -9.261495652820      0.861515538324     -6.673773923290
     175   59  1   0.96400      7.825004571330    -14.840068417200    -17.229384366900
     176   59  2  -0.48200      7.900901809460    -14.604761174300    -16.738090045000
     177   59  2  -0.48200      7.749107333190    -15.075375660100    -17.720678688700
     178   60  1   0.96400    -11.542345698200      3.744059394480    -12.887330228400
     179   60  2  -0.48200    -10.994204871000      3.771113351500    -12.851140215200
     180   60  2  -0.48200    -12.090486525300      3.717005437450    -12.923520241600
     181   61  1   0.96400     -0.726161012144    -15.515631153800     -8.670093644890
     182   61  2  -0.48200     -0.234226899320    -15.662923704500     -8.473101936540
     183   61  2  -0.48200     -1.218095124970    -15.368338603100     -8.867085353240
     184   62  1   0.96400     13.849583910800      2.818648783480     -4.488414065980
     185   62  2  -0.48200     14.105150707000      3.266072521430     -4.296066434360
     186   62  2  -0.48200     13.594017114600      2.371225045530     -4.680761697610
     187   63  1   0.96400     15.380338234100     -5.465457487660    -17.467968600200
     188   63  2  -0.48200     14.900995600300     -5.303079643610    -17.252645412300
     189   63  2  -0.48200     15.859680867800     -5.627835331700    -17.683291788100
     190   64  1   0.96400     -9.739965904320     12.020465861400    -11.579979236900
     191   64  2  -0.48200    -10.011209874800     11.600060834600    -11.351535979300
     192   64  2  -0.48200     -9.468721933810     12.440870888200    -11.808422494400
     193   65  1   0.96400     19.070772157300      6.817580492760     -1.562387176760
     194   65  2  -0.48200     18.701983491100      6.766568909750     -1.967223857490
     195   65  2  -0.48200     19.439560823600      6.868592075780     -1.157550496030
     196   66  1   0.96400     18.207917809900    -16.803861141900     15.620012656900
     197   66  2  -0.48200     18.635511156100    -16.721129837800     15.284126572700
     198   66  2  -0.48200     17.780324463700    -16.886592446100     15.955898741200
     199   67  1   0.96400     -8.824190363490    -14.457599074900    -16.202146685200
     200   67  2  -0.48200     -8.558764756410    -14.064395155600    -16.480426984400
     201   67  2  -0.48200     -9.089615970560    -14.850802994300    -15.923866386000
     202   68  1   0.96400    -17.775179456700    -10.585211681800     13.978972964200
     203   68  2  -0.48200    -17.431211284600    -10.738016574800     13.577928625900
     204   68  2  -0.48200    -18.119147628800    -10.432406788800     14.380017302500
     205   69  1   0.96400    -18.954899511100     -5.474109048790     13.059557475300
     206   69  2  -0.48200    -19.108768566500     -5.970852821250     12.880476660300
     207   69  2  -0.48200    -18.801030455600     -4.977365276320     13.238638290300
     208   70  1   0.96400     11.560331440000    -13.510963729600     15.536967204200
     209   70  2  -0.48200     11.336866660800    -13.123558245900     15.216841473200
     210   70  2  -0.48200     11.783796219300    -13.898369213300     15.857092935200
     211   71  1   0.96400      8.311717912700     -7.511093170020    -17.132681739700
     212   71  2  -0.48200      8.198917388250     -8.047914326620    -17.092693147400
     213   71  2  -0.48200      8.424518437160     -6.974272013430    -17.172670332000
     214   72  1   0.96400      3.160700706990     18.525146058800     -3.932003240460
     215   72  2  -0.48200      3.091665267590     18.096887648600     -3.593877757460
     216   72  2  -0.48200      3.229736146400     18.953404468900     -4.270128723460
     217   73  1   0.96400     -8.079921606790     14.993063994500     12.285702163300
     218   73  2  -0.48200     -8.113794799710     14.464710546300     12.136721491400
     219   73  2  -0.48200     -8.046048413870     15.521417442700     12.434682835200
     220   74  1   0.96400     -0.022475827143     -8.255064400530     12.373022538900
     221   74  2  -0.48200     -0.435564578239     -7.998395475540     12.629885822900
     222   74  2  -0.48200      0.390612923953     -8.511733325530     12.116159254900
     223   75  1   0.96400     -4.782815230120    -13.928240760400      2.912921402290
     224   75  2  -0.48200     -4.777430158860    -13.379642563600      2.874049568050
     225   75  2  -0.48200     -4.788200301380    -14.476838957200      2.951793236520
     226   76  1   0.96400    -17.787007087100    -12.523557134200     18.509989689500
     227   76  2  -0.48200    -17.342058438900    -12.588646161000     18.826666368600
     228   76  2  -0.48200    -18.231955735300    -12.458468107400     18.193313010500
     229   77  1   0.96400      7.264168336240     11.396016248600      9.141608222190
     230   77  2  -0.48200      7.032973060240     11.122186396100      8.724396098440
     231   77  2  -0.48200      7.495363612240     11.669846101200      9.558820345940
     232   78  1   0.96400     15.790047871200      5.146010570900      2.926557020190
     233   78  2  -0.48200     16.076342395500      5.512675007410      3.219972487290
     234   78  2  -0.48200     15.503753346900      4.779346134390      2.633141553080
     235   79  1   0.96400     -9.283202653160     -9.565322296660     -4.714354559570
     236   79  2  -0.48200     -9.789468182380     -9.773684609230     -4.661625434540
     237   79  2  -0.48200     -8.776937123950     -9.356959984080     -4.767083684590
     238   80  1   0.96400     17.035967541100     -6.200856685360     14.410793983100
     239   80  2  -0.48200     17.118777073400     -6.343741857990     13.886173731100
     240   80  2  -0.48200     16.953158008700     -6.057971512730     14.935414235100
     241   81  1   0.96400     -6.327999007120    -10.553937984200     16.077331759100
     242   81  2  -0.48200     -6.592176546760    -10.155674496500     15.805125179700
     243   81  2  -0.48200     -6.063821467470    -10.952201472000     16.349538338500
     244   82  1   0.96400    -18.184232328800     -3.433038139780     10.009882129900
     245   82  2  -0.48200    -17.698132747400     -3.365060510750     10.258047878600
     246   82  2  -0.48200    -18.670331910300     -3.501015768800      9.761716381190
     247   83  1   0.96400     19.590106845100     17.040858566800     10.955997193200
     248   83  2  -0.48200     19.145911059000     17.301662892000     10.763198833200
     249   83  2  -0.48200     20.034302631168     16.780054241500     11.148795553100
     250   84  1   0.96400     14.723243656800     -8.171539058870     -6.251184157050
     251   84  2  -0.48200     14.505934509500     -7.893229064070     -5.829496735720
     252   84  2  -0.48200     14.940552804100     -8.449849053680     -6.672871578370
     253   85  1   0.96400     -2.312869027080      9.208338637630     -9.389251300640
     254   85  2  -0.48200     -2.533769693080      9.470641082750     -9.819251676270
     255   85  2  -0.48200     -2.091968361080      8.946036192520     -8.959250925000
     256   86  1   0.96400     13.574005013600      8.271806258490    -13.729658887500
     257   86  2  -0.48200     14.082869949700      8.449747345450    -13.620601808900
     258   86  2  -0.48200     13.065140077500      8.093865171530    -13.838715966000
     259   87  1   0.96400    -15.212099191200      3.472423738870     19.334273463200
     260   87  2  -0.48200    -15.539455001500      3.708063451130     19.708188024800
     261   87  2  -0.48200    -14.884743380800      3.236784026610     18.960358901500
     262   88  1   0.96400    -12.017990430000      8.754220193770     -5.590346673930
     263   88  2  -0.48200    -12.100158657200      8.636549513960     -5.059402238470
     264   88  2  -0.48200    -11.935822202700      8.871890873590     -6.121291109390
     265   89  1   0.96400     -6.962569989510     10.676514391600     -0.346455830345
     266   89  2  -0.48200     -7.403729954420     11.000797901600     -0.294320520957
     267   89  2  -0.48200     -6.521410024600     10.352230881500     -0.398591139733
     268   90  1   0.96400    -16.444952685500     12.287426055200     -2.671101008950
     269   90  2  -0.48200    -15.898457372900     12.273770771500     -2.731569236650
     270   90  2  -0.48200    -16.991447998100     12.301081338800     -2.610632781260
     271   91  1   0.96400     -9.311852836820    -10.942688262900     -8.584659087340
     272   91  2  -0.48200     -9.239157505660    -10.554793243600     -8.201575750690
     273   91  2  -0.48200     -9.384548167990    -11.330583282300     -8.967742423990
     274   92  1   0.96400      9.965883609160     17.999727169200      1.724626592120
     275   92  2  -0.48200      9.799358817050     18.300154063300      1.295076624260
     276   92  2  -0.48200     10.132408401300     17.699300275000      2.154176559970
     277   93  1   0.96400    -10.142559149400     16.980854961900      9.847481515830
     278   93  2  -0.48200    -10.103348080200     17.026446124600      9.300778728270
     279   93  2  -0.48200    -10.181770218700     16.935263799200     10.394184303400
     280   94  1   0.96400    -17.744046920800      8.121878375850     -8.147409014860
     281   94  2  -0.48200    -17.272418893400      8.177396886410     -7.869947848640
     282   94  2  -0.48200    -18.215674948200      8.066359865300     -8.424870181070
     283   95  1   0.96400    -13.131640213800    -18.967144934000     17.871547276500
     284   95  2  -0.48200    -13.232428886300    -18.552679789500     18.218765201600
     285   95  2  -0.48200    -13.030851541300    -19.381610078500     17.524329351500
     286   96  1   0.96400    -19.421887237700    -17.601595070000     -6.580595209310
     287   96  2  -0.48200    -19.382757327500    -17.102175273000     -6.353551785110
     288   96  2  -0.48200    -19.461017148000    -18.101014867000     -6.807638633500
     289   97  1   0.96400    -19.766029121700     14.833960977100     -9.499020081340
     290   97  2  -0.48200    -19.461780549300     14.799754857200     -9.955925703440
     291   97  2  -0.48200    -20.070277694268     14.868167097100     -9.042114459240
     292   98  1   0.96400     11.335129483800    -11.928088557800     18.307867336600
     293   98  2  -0.48200     11.383391803600    -12.396807999100     18.591544677700
     294   98  2  -0.48200     11.286867164000    -11.459369116500     18.024189995500
     295   99  1   0.96400     -0.931550731273    -15.409315162300     -0.781773922893
     296   99  2  -0.48200     -0.934444653354    -15.574675750100     -0.257228880767
     297   99  2  -0.48200     -0.928656809192    -15.243954574500     -1.306318965020
     298  100  1   0.96400     19.697246300100     -0.350072784178      4.409222479440
     299  100  2  -0.48200     19.605847014800      0.174016640934      4.269664444440
     300  100  2  -0.48200     19.788645585400     -0.874162209290      4.548780514440
     301  101  1   0.96400    -16.646419359200     -3.085391699250     18.205174487100
     302  101  2  -0.48200    -16.593811577600     -2.564764385440     18.035823899800
     303  101  2  -0.48200    -16.699027140700     -3.606019013070     18.374525074400
     304  102  1   0.96400     -0.805227762456      3.845347752940     -6.498920790970
     305  102  2  -0.48200     -0.864047268646      3.624954773610     -5.998453808690
     306  102  2  -0.48200     -0.746408256266      4.065740732270     -6.999387773250
     307  103  1   0.96400      5.219573983830      5.931286832230     10.406981579000
     308  103  2  -0.48200      5.375604023240      5.409006095680     10.333650419000
     309  103  2  -0.48200      5.063543944430      6.453567568790     10.480312739000
     310  104  1   0.96400     -5.274114158990     19.161653504600     -5.884784442890
     311  104  2  -0.48200     -5.078039082310     19.205093293500     -5.372761446300
     312  104  2  -0.48200     -5.470189235670     19.118213715600     -6.396807439480
     313  105  1   0.96400     17.832616727200     -7.530676134590     -0.739639652323
     314  105  2  -0.48200     18.194608249300     -7.766115850290     -0.399007477936
     315  105  2  -0.48200     17.470625205200     -7.295236418900     -1.080271826710
     316  106  1   0.96400      8.583853943470    -16.967984878200      3.196281248630
     317  106  2  -0.48200      8.064368798730    -17.117861113100      3.095423434760
     318  106  2  -0.48200      9.103339088210    -16.818108643300      3.297139062490
     319  107  1   0.96400      2.556417507550    -17.614191741300      0.917265445853
     320  107  2  -0.48200      2.747647330320    -17.179000877100      1.193924200730
     321  107  2  -0.48200      2.365187684790    -18.049382605400      0.640606690972
     322  108  1   0.96400    -17.597698900100      9.601687653620     17.456641055100
     323  108  2  -0.48200    -17.830746730300      9.827294169890     17.012467205500
     324  108  2  -0.48200    -17.364651069900      9.376081137350     17.900814904700
     325  109  1   0.96400     -0.786755217266    -13.012573935500    -10.600912651200
     326  109  2  -0.48200     -0.459207744643    -13.075787112500    -10.163629279200
     327  109  2  -0.48200     -1.114302689890    -12.949360758500    -11.038196023200
     328  110  1   0.96400    -12.615385606900      6.472787297870     11.266514260300
     329  110  2  -0.48200    -12.366612042700      6.057602332860     11.005299485400
     330  110  2  -0.48200    -12.864159171100      6.887972262870     11.527729035100
     331  111  1   0.96400     13.504952003600    -19.416413837300     -1.781791590850
     332  111  2  -0.48200     13.997612593300    -19.659469743000     -1.808425592750
     333  111  2  -0.48200     13.012291413900    -19.173357931600     -1.755157588960
     334  112  1   0.96400     -6.160683394530    -19.160948722000     -0.996624884962
     335  112  2  -0.48200     -5.982799714180    -19.457315642900     -0.568811789670
     336  112  2  -0.48200     -6.338567074880    -18.864581801200     -1.424437980250
     337  113  1   0.96400     10.708021259700      6.656361210430     -6.827350703340
     338  113  2  -0.48200     11.018852269100      6.367172334170     -6.477702483770
     339  113  2  -0.48200     10.397190250300      6.945550086690     -7.176998922910
     340  114  1   0.96400     12.607912536200     17.231083728900     14.995459673300