LAMMPS Atom File

         3000 atoms
         2000 bonds
         1000 angles
           0 dihedrals
           0 impropers

           2 atom types
           1 bond types
           1 angle types

         0.0  42.2612293464 xlo xhi
         0.0  42.2612293464 ylo yhi
         0.0  42.2612293464 zlo zhi

Masses

         1    1.0e-20
         2   14.00670

Atoms

       1    1  1   0.96400    -11.363125882300     15.923879364400      2.167528297960
       2    1  2  -0.48200    -11.386247212900     15.588611625900      1.732142322520
       3    1  2  -0.48200    -11.340004551800     16.259147102900      2.602914273390
       4    2  1   0.96400     10.143167934600      1.488528906490     -1.361568717300
       5    2  2  -0.48200      9.797306427900      1.089459946800     -1.515269021670
       6    2  2  -0.48200     10.489029441400      1.887597866180     -1.207868412920
       7    3  1   0.96400    -12.947006394900    -20.480671193200     17.374805997500
       8    3  2  -0.48200    -12.516161973500    -20.178884377500     17.535422940600
       9    3  2  -0.48200    -13.377850816200    -20.782458009000     17.214189054300
      10    4  1   0.96400     12.580897996000    -17.464120085300     -1.073756655370
      11    4  2  -0.48200     12.307499851700    -17.600796635500     -1.531001639330
      12    4  2  -0.48200     12.854296140200    -17.327443535200     -0.616511671408
      13    5  1   0.96400    -10.349903567100     20.497554064900      0.218054522310
      14    5  2  -0.48200    -10.856748371500     20.351310146100      0.062423354279
      15    5  2  -0.48200     -9.843058762690     20.643797983800      0.373685690342
      16    6  1   0.96400    -11.465621621300     15.168991265900    -20.494745060700
      17    6  2  -0.48200    -11.448054284300     15.034963677800    -21.027875433500
      18    6  2  -0.48200    -11.483188958200     15.303018853900    -19.961614688000
      19    7  1   0.96400     17.398040729600      3.249090942750     -4.615894818690
      20    7  2  -0.48200     17.837922579100      3.189094074630     -4.940555155600
      21    7  2  -0.48200     16.958158880200      3.309087810870     -4.291234481770
      22    8  1   0.96400     18.558031825700     -4.595526897510      7.529680198600
      23    8  2  -0.48200     18.741731185500     -4.608367762050      7.011423835990
      24    8  2  -0.48200     18.374332465800     -4.582686032970      8.047936561220
      25    9  1   0.96400      5.510311512530     15.766110893300    -19.654752519100
      26    9  2  -0.48200      5.880318112900     15.365317217100    -19.725176554900
      27    9  2  -0.48200      5.140304912170     16.166904569500    -19.584328483300
      28   10  1   0.96400     13.771816824200     -4.591231429520    -19.742022356200
      29   10  2  -0.48200     13.833486895900     -4.300184681710    -20.204611366900
      30   10  2  -0.48200     13.710146752400     -4.882278177340    -19.279433345500
      31   11  1   0.96400      0.508169859983     -8.369224039460    -13.868246210100
      32   11  2  -0.48200      0.606952848160     -8.607539742780    -14.353990532600
      33   11  2  -0.48200      0.409386871807     -8.130908336140    -13.382501887700
      34   12  1   0.96400     -8.574124671960     -5.035370392230      1.999822053190
      35   12  2  -0.48200     -8.966377802610     -5.300208002330      2.279997929710
      36   12  2  -0.48200     -8.181871541320     -4.770532782140      1.719646176680
      37   13  1   0.96400     -9.519725892270    -16.514371130500     13.232158912400
      38   13  2  -0.48200     -9.207396883750    -16.513155758400     12.779445853900
      39   13  2  -0.48200     -9.832054900790    -16.515586502600     13.684871970800
      40   14  1   0.96400    -16.840241219800     -8.350475790470     13.978829170600
      41   14  2  -0.48200    -16.989684447500     -8.667294097330     14.402849078400
      42   14  2  -0.48200    -16.690797992100     -8.033657483620     13.554809262900
      43   15  1   0.96400     15.282632745200     18.003073188200     18.456696289300
      44   15  2  -0.48200     15.143890531200     18.515197521800     18.311854081800
      45   15  2  -0.48200     15.421374959300     17.490948854700     18.601538496700
      46   16  1   0.96400     11.058124867900     14.385719276800     16.242322437600
      47   16  2  -0.48200     10.584362397600     14.641038354100     16.355730067700
      48   16  2  -0.48200     11.531887338100     14.130400199500     16.128914807500
      49   17  1   0.96400    -18.157621500800    -19.508639595500      2.608292767040
      50   17  2  -0.48200    -17.608360551400    -19.487198892300      2.627073225920
      51   17  2  -0.48200    -18.706882450300    -19.530080298600      2.589512308160
      52   18  1   0.96400    -12.773929190100     -9.717718728010      5.932624322430
      53   18  2  -0.48200    -12.553792646700     -9.594024494420      5.444014417860
      54   18  2  -0.48200    -12.994065733400     -9.841412961600      6.421234227000
      55   19  1   0.96400     -1.080716137860     -6.875552368260     18.320622383300
      56   19  2  -0.48200     -1.301449909240     -6.749286459180     17.832940599400
      57   19  2  -0.48200     -0.859982366471     -7.001818277330     18.808304167200
      58   20  1   0.96400    -12.650255824200      0.525528628967    -15.770214020700
      59   20  2  -0.48200    -12.741818177400      1.005035384430    -16.023570700000
      60   20  2  -0.48200    -12.558693471000      0.046021873506    -15.516857341400
      61   21  1   0.96400     14.967105902400    -16.485886972400      9.209674781340
      62   21  2  -0.48200     14.517163253400    -16.329124457000      9.484405788800
      63   21  2  -0.48200     15.417048551300    -16.642649487800      8.934943773870
      64   22  1   0.96400      3.358029600730     -4.657489411550     14.268806217200
      65   22  2  -0.48200      3.772731948750     -5.006062003960     14.173837220300
      66   22  2  -0.48200      2.943327252720     -4.308916819140     14.363775214100
      67   23  1   0.96400     -9.400961936930    -10.835062435500      2.220530559450
      68   23  2  -0.48200     -8.896827416180    -10.761279650100      2.427664539210
      69   23  2  -0.48200     -9.905096457680    -10.908845220900      2.013396579690
      70   24  1   0.96400     -0.358841857883     -6.752571751750    -18.962812467000
      71   24  2  -0.48200     -0.562118879416     -6.893550858930    -18.471586099800
      72   24  2  -0.48200     -0.155564836350     -6.611592644560    -19.454038834300
      73   25  1   0.96400    -18.068906646800      1.360357407830    -17.631743913100
      74   25  2  -0.48200    -18.211917021900      1.095816368530    -17.171237592700
      75   25  2  -0.48200    -17.925896271600      1.624898447140    -18.092250233500
      76   26  1   0.96400    -17.619636648800     17.972100666400     -1.295557573800
      77   26  2  -0.48200    -17.072685920800     18.016164160600     -1.333018347580
      78   26  2  -0.48200    -18.166587376900     17.928037172200     -1.258096800030
      79   27  1   0.96400     -4.040494272470    -10.839375735800     12.791611462500
      80   27  2  -0.48200     -3.818083379490    -10.838254955300     12.288588462500
      81   27  2  -0.48200     -4.262905165450    -10.840496516400     13.294634462500
      82   28  1   0.96400     10.028467063500     -5.684117452070     13.316596939800
      83   28  2  -0.48200      9.727154935410     -5.533285958300     13.751293226800
      84   28  2  -0.48200     10.329779191700     -5.834948945840     12.881900652800
      85   29  1   0.96400     16.921360602800    -15.971073186900     -9.979508277200
      86   29  2  -0.48200     17.373011145000    -15.682567750900     -9.855910538300
      87   29  2  -0.48200     16.469710060500    -16.259578622900    -10.103106016100
      88   30  1   0.96400    -15.615647140000      2.919437940110      2.439393083880
      89   30  2  -0.48200    -16.027233935900      3.262348369600      2.314858965100
      90   30  2  -0.48200    -15.204060344000      2.576527510610      2.563927202660
      91   31  1   0.96400     18.652046103100     -5.821164320450    -16.540600625200
      92   31  2  -0.48200     18.524365052400     -6.132574228690    -16.105604742000
      93   31  2  -0.48200     18.779727153700     -5.509754412210    -16.975596508300
      94   32  1   0.96400    -19.609906301100      4.255504077600    -17.542197171900
      95   32  2  -0.48200    -19.838030034900      3.756144216490    -17.575352732100
      96   32  2  -0.48200    -19.381782567200      4.754863938700    -17.509041611700
      97   33  1   0.96400     15.582242223300    -20.449174797400      9.914248765380
      98   33  2  -0.48200     15.289771262400    -20.885916967400      9.752332077120
      99   33  2  -0.48200     15.874713184200    -20.012432627300     10.076165453600
     100   34  1   0.96400    -13.019434074600     -5.352998292970      7.473394955600
     101   34  2  -0.48200    -12.747060625000     -5.498567956840      7.928501730910
     102   34  2  -0.48200    -13.291807524200     -5.207428629110      7.018288180300
     103   35  1   0.96400     10.170793653400     19.083959533100     18.531322648100
     104   35  2  -0.48200     10.703298900700     19.124852453600     18.399922759900
     105   35  2  -0.48200      9.638288406030     19.043066612600     18.662722536300
     106   36  1   0.96400      4.560199458110     -8.776508744220      6.307505554270
     107   36  2  -0.48200      4.617426527040     -8.863275807060      6.847594935190
     108   36  2  -0.48200      4.502972389170     -8.689741681380      5.767416173340
     109   37  1   0.96400     11.452557793500    -19.786930807600    -18.121641634800
     110   37  2  -0.48200     11.156802016700    -19.341011512600    -17.994423307100
     111   37  2  -0.48200     11.748313570200    -20.232850102500    -18.248859962500
     112   38  1   0.96400    -11.938533716100    -15.032283207000      4.431450728500
     113   38  2  -0.48200    -12.069066470500    -14.964866823700      3.901435416190
     114   38  2  -0.48200    -11.808000961700    -15.099699590300      4.961466040820
     115   39  1   0.96400     -6.662859191210    -10.021300845000     20.605772350000
     116   39  2  -0.48200     -6.171473665070    -10.258902219400     20.673491266100
     117   39  2  -0.48200     -7.154244717350     -9.783699470650     20.538053433900
     118   40  1   0.96400    -19.129837173100    -13.257446595400    -16.696498118200
     119   40  2  -0.48200    -19.243790595500    -13.647343548000    -16.325694957600
     120   40  2  -0.48200    -19.015883750600    -12.867549642900    -17.067301278800
     121   41  1   0.96400     -1.151135982220     17.432286142300     20.440390307900
     122   41  2  -0.48200     -1.137604521720     17.977338212600     20.368036038800
     123   41  2  -0.48200     -1.164667442730     16.887234072000     20.512744577000
     124   42  1   0.96400      3.906579064500     -0.462045843519     -2.199957972300
     125   42  2  -0.48200      3.481289248130     -0.810623377413     -2.188900171680
     126   42  2  -0.48200      4.331868880870     -0.113468309625     -2.211015772920
     127   43  1   0.96400     19.271617043600     -1.180686969300    -17.130975582500
     128   43  2  -0.48200     19.262556958000     -1.394678527930    -17.637557784800
     129   43  2  -0.48200     19.280677129300     -0.966695410675    -16.624393380200
     130   44  1   0.96400    -13.029136448800     18.643161710000     -1.970864724270
     131   44  2  -0.48200    -13.128686687100     18.270614574900     -1.578693355900
     132   44  2  -0.48200    -12.929586210500     19.015708845100     -2.363036092640
     133   45  1   0.96400     16.581279560600     11.679192412400      1.465696480470
     134   45  2  -0.48200     16.201368454400     11.282029055300      1.486404430690
     135   45  2  -0.48200     16.961190666800     12.076355769500      1.444988530240
     136   46  1   0.96400    -13.299719073100     -8.490474870310    -21.059844504100
     137   46  2  -0.48200    -13.500022421500     -7.983620841610    -21.133855058948
     138   46  2  -0.48200    -13.099415724800     -8.997328899020    -20.985833949200
     139   47  1   0.96400     -3.419356536250     16.054830464000    -10.965988511100
     140   47  2  -0.48200     -3.511878571910     16.588253882800    -10.869039404800
     141   47  2  -0.48200     -3.326834500580     15.521407045200    -11.062937617400
     142   48  1   0.96400     14.109735312400     12.714338494500      2.780930351750
     143   48  2  -0.48200     14.304221347000     13.172337964800      2.546597964860
     144   48  2  -0.48200     13.915249277900     12.256339024200      3.015262738650
     145   49  1   0.96400     -5.251690927520     -8.642894048800     -8.026793797900
     146   49  2  -0.48200     -4.803206609460     -8.546716439990     -7.723294730340
     147   49  2  -0.48200     -5.700175245590     -8.739071657610     -8.330292865470
     148   50  1   0.96400     -0.151946198573     -4.626204640280    -14.719714498600
     149   50  2  -0.48200     -0.164570708420     -5.059542615690    -14.381249107700
     150   50  2  -0.48200     -0.139321688725     -4.192866664880    -15.058179889500
     151   51  1   0.96400    -17.056544124600     17.976679684900     -8.118236885150
     152   51  2  -0.48200    -17.145008826100     18.381153367000     -7.756194018840
     153   51  2  -0.48200    -16.968079423100     17.572206002800     -8.480279751460
     154   52  1   0.96400      2.429081100970      7.385607925870     10.552829242900
     155   52  2  -0.48200      2.342721974170      7.639609464360     11.032959766500
     156   52  2  -0.48200      2.515440227770      7.131606387380     10.072698719400
     157   53  1   0.96400     18.032840813300      1.776647292850     15.230255638400
     158   53  2  -0.48200     17.672037657300      1.916140530000     14.839279015800
     159   53  2  -0.48200     18.393643969200      1.637154055700     15.621232261000
     160   54  1   0.96400      0.476985801893    -10.746787364500     -7.080786180300
     161   54  2  -0.48200     -0.013255906117    -10.876848353600     -6.868072271850
     162   54  2  -0.48200      0.967227509903    -10.616726375500     -7.293500088740
     163   55  1   0.96400     -1.163155564910      3.962305008750     -0.086457219492
     164   55  2  -0.48200     -1.441625526610      3.949155058600      0.387654116845
     165   55  2  -0.48200     -0.884685603217      3.975454958900     -0.560568555829
     166   56  1   0.96400     -2.963204382390    -12.278983024500     -1.570312940210
     167   56  2  -0.48200     -2.971659292820    -11.811330692100     -1.280951901790
     168   56  2  -0.48200     -2.954749471960    -12.746635356800     -1.859673978630
     169   57  1   0.96400     19.824953253300     -8.937862013040    -16.501166357200
     170   57  2  -0.48200     19.884305443400     -8.871089716740    -17.043862200200
     171   57  2  -0.48200     19.765601063200     -9.004634309340    -15.958470514200
     172   58  1   0.96400     -5.330460444920     -0.069036130322     -2.093799522920
     173   58  2  -0.48200     -5.228860307660     -0.053958313563     -2.634123566020
     174   58  2  -0.48200     -5.432060582170     -0.084113947081     -1.553475479820
     175   59  1   0.96400    -10.576603038000      5.838386141720     -8.193188661530
     176   59  2  -0.48200    -10.611547604900      5.399640823890     -7.863368372090
     177   59  2  -0.48200    -10.541658471100      6.277131459550     -8.523008950960
     178   60  1   0.96400     -4.577861953790     11.334399031100      1.917347241690
     179   60  2  -0.48200     -4.261206445170     11.655849439500      1.602865248890
     180   60  2  -0.48200     -4.894517462400     11.012948622700      2.231829234480
     181   61  1   0.96400     18.483155611300    -15.910234644200      5.345937347080
     182   61  2  -0.48200     18.454978151700    -15.390940624200      5.524933859960
     183   61  2  -0.48200     18.511333071000    -16.429528664100      5.166940834200
     184   62  1   0.96400      6.744594484770     11.012295147000     -2.437482566970
     185   62  2  -0.48200      7.288953105790     11.035578854800     -2.362438841930
     186   62  2  -0.48200      6.200235863740     10.989011439200     -2.512526292020
     187   63  1   0.96400     -6.312801938600     14.661244109600      0.357968322471
     188   63  2  -0.48200     -6.405700627440     14.201223877300      0.071173588413
     189   63  2  -0.48200     -6.219903249760     15.121264341900      0.644763056528
     190   64  1   0.96400     -8.629501789930      0.506534292206     19.528850558900
     191   64  2  -0.48200     -8.270953147930      0.155200752065     19.753589551700
     192   64  2  -0.48200     -8.988050431930      0.857867832347     19.304111566100
     193   65  1   0.96400     17.887295688900     18.023102467200     20.904389042500
     194   65  2  -0.48200     17.852436665200     18.012545193500     20.355596374500
     195   65  2  -0.48200     17.922154712600     18.033659740900     21.453181710448
     196   66  1   0.96400      0.976394125976      1.685713358760      2.322053859390
     197   66  2  -0.48200      1.102261257400      2.217898787060      2.380672415560
     198   66  2  -0.48200      0.850526994551      1.153527930450      2.263435303220
     199   67  1   0.96400     -1.444767819470     18.223281115600     14.357611691200
     200   67  2  -0.48200     -1.893110516770     18.469063719900     14.154930322600
     201   67  2  -0.48200     -0.996425122170     17.977498511300     14.560293059900
     202   68  1   0.96400      0.332693384040     -5.080560127790     -4.431070456090
     203   68  2  -0.48200      0.685062998400     -4.881637943700     -4.058557879720
     204   68  2  -0.48200     -0.019676230319     -5.279482311870     -4.803583032460
     205   69  1   0.96400     10.262562346800     -2.475205770920     15.894354418500
     206   69  2  -0.48200     10.301209683500     -1.976402916800     15.665876638200
     207   69  2  -0.48200     10.223915010200     -2.974008625030     16.122832198800
     208   70  1   0.96400    -13.741320393400     -2.174590662740     -3.736316121260
     209   70  2  -0.48200    -13.515206964000     -2.278600016040     -4.226779954240
     210   70  2  -0.48200    -13.967433822800     -2.070581309440     -3.245852288280
     211   71  1   0.96400      5.906944359990    -12.923195647100    -15.878744488600
     212   71  2  -0.48200      5.656830851040    -13.399442612100    -15.764149284000
     213   71  2  -0.48200      6.157057868940    -12.446948682000    -15.993339693300
     214   72  1   0.96400    -12.690084845300      0.759843321279    -11.838627708000
     215   72  2  -0.48200    -12.303962390600      1.131000574800    -11.963734635000
     216   72  2  -0.48200    -13.076207300000      0.388686067756    -11.713520781100
     217   73  1   0.96400     -3.437159627090    -17.639674230300     -9.744542356830
     218   73  2  -0.48200     -3.793503964850    -17.501180965300     -9.349145937390
     219   73  2  -0.48200     -3.080815289320    -17.778167495200    -10.139938776300
     220   74  1   0.96400     11.785833502400      0.345352282328     -5.733239262270
     221   74  2  -0.48200     12.061526032100      0.585680408518     -6.144014165080
     222   74  2  -0.48200     11.510140972600      0.105024156139     -5.322464359460
     223   75  1   0.96400     -7.572445566090    -14.727566650800    -14.062272728100
     224   75  2  -0.48200     -7.267572641570    -14.689520714700    -13.606087451500
     225   75  2  -0.48200     -7.877318490600    -14.765612586900    -14.518458004800
     226   76  1   0.96400     14.190842236000     -0.457389875042    -18.143419562600
     227   76  2  -0.48200     14.011063013000      0.061271249533    -18.109213294000
     228   76  2  -0.48200     14.370621459100     -0.976050999618    -18.177625831300
     229   77  1   0.96400    -12.696057567000     15.746613300200    -13.486832486300
     230   77  2  -0.48200    -12.410192514100     15.671109266600    -13.023064966500
     231   77  2  -0.48200    -12.981922619800     15.822117333800    -13.950600006200
     232   78  1   0.96400     19.576224692300      8.109842033690      1.630185353450
     233   78  2  -0.48200     19.302869309900      8.451931926590      1.297392114210
     234   78  2  -0.48200     19.849580074700      7.767752140800      1.962978592700
     235   79  1   0.96400     15.114858425700     21.076082178400    -20.344391547700
     236   79  2  -0.48200     15.457965010200     21.448243457448    -20.129277963600
     237   79  2  -0.48200     14.771751841200     20.703920899400    -20.559505131800
     238   80  1   0.96400     -7.664270496680    -16.225688371700    -18.115429573500
     239   80  2  -0.48200     -7.253125354540    -15.887578127500    -17.977078083100
     240   80  2  -0.48200     -8.075415638820    -16.563798615800    -18.253781063900
     241   81  1   0.96400    -16.059524479200    -18.700233711700     13.709290618400
     242   81  2  -0.48200    -16.319034769100    -18.384966260100     14.077748001800
     243   81  2  -0.48200    -15.800014189200    -19.015501163200     13.340833235000
     244   82  1   0.96400     20.559652455900     -6.985724238450     14.267800984600
     245   82  2  -0.48200     20.735517899300     -6.515922636480     14.493317725900
     246   82  2  -0.48200     20.383787012500     -7.455525840410     14.042284243300
     247   83  1   0.96400     12.691680954700    -13.007531308000     14.054513016000
     248   83  2  -0.48200     12.752729946700    -12.506127058700     14.272152165400
     249   83  2  -0.48200     12.630631962700    -13.508935557300     13.836873866500
     250   84  1   0.96400      9.076563588190     -6.751712301130    -15.155137504700
     251   84  2  -0.48200      9.458630713970     -6.383969359070    -15.301047888000
     252   84  2  -0.48200      8.694496462400     -7.119455243200    -15.009227121400
     253   85  1   0.96400      5.687439923790      9.267912464930     -6.059906606690
     254   85  2  -0.48200      6.040680998120      9.519080849220     -6.398484789890
     255   85  2  -0.48200      5.334198849460      9.016744080640     -5.721328423490
     256   86  1   0.96400     16.828918509200      5.073037722090    -18.878679691400
     257   86  2  -0.48200     16.738633776400      4.823519024660    -19.360435943800
     258   86  2  -0.48200     16.919203242000      5.322556419510    -18.396923439100
     259   87  1   0.96400     -6.190220619610     19.359593593100     13.009885541100
     260   87  2  -0.48200     -5.790510420650     19.556879757200     13.332081019400
     261   87  2  -0.48200     -6.589930818580     19.162307428900     12.687690062700
     262   88  1   0.96400      0.364545398908     -9.019211610870     12.975611357000
     263   88  2  -0.48200      0.388817036483     -9.409544927570     13.362329328500
     264   88  2  -0.48200      0.340273761333     -8.628878294170     12.588893385500
     265   89  1   0.96400     -8.196298101620      1.043339638900      7.863360586950
     266   89  2  -0.48200     -8.545654798870      0.725703265168      7.581302025340
     267   89  2  -0.48200     -7.846941404380      1.360976012620      8.145419148570
     268   90  1   0.96400      1.347570508700    -16.124400594300      8.148802371310
     269   90  2  -0.48200      1.458000523800    -15.738146985900      7.773151786660
     270   90  2  -0.48200      1.237140493590    -16.510654202700      8.524452955960
     271   91  1   0.96400    -20.095690698500    -13.305343785100     17.411530565600
     272   91  2  -0.48200    -19.935092068700    -13.334415696000     16.886304039100
     273   91  2  -0.48200    -20.256289328300    -13.276271874200     17.936757092000
     274   92  1   0.96400     11.338068612400     13.772337761100     12.312094350000
     275   92  2  -0.48200     11.332566116900     14.282431732200     12.517700437300
     276   92  2  -0.48200     11.343571107800     13.262243789900     12.106488262700
     277   93  1   0.96400     14.965101787700      6.804463704180      1.549915123200
     278   93  2  -0.48200     14.527272775200      6.791125361610      1.217307479930
     279   93  2  -0.48200     15.402930800300      6.817802046740      1.882522766480
     280   94  1   0.96400    -10.840931349200     -6.707716759920     -0.881988466974
     281   94  2  -0.48200    -10.933038311900     -6.381807193460     -0.448630344966
     282   94  2  -0.48200    -10.748824386500     -7.033626326380     -1.315346588980
     283   95  1   0.96400     17.992260784400     -9.000984347430     16.905077655400
     284   95  2  -0.48200     18.066657621000     -9.435698564490     17.233693936500
     285   95  2  -0.48200     17.917863947900     -8.566270130370     16.576461374300
     286   96  1   0.96400    -11.291340170000    -12.570485282900     13.038732414300
     287   96  2  -0.48200    -11.497323934600    -12.227836666800     13.416439462900
     288   96  2  -0.48200    -11.085356405300    -12.913133899000     12.661025365700
     289   97  1   0.96400     13.626727505000    -11.195982998300    -12.103770192700
     290   97  2  -0.48200     13.086595157300    -11.298043576900    -12.122227853400
     291   97  2  -0.48200     14.166859852700    -11.093922419700    -12.085312532000
     292   98  1   0.96400    -19.662761333300     -8.617355544420    -19.087393606100
     293   98  2  -0.48200    -20.051745446300     -8.394566852890    -18.768714208100
     294   98  2  -0.48200    -19.273777220300     -8.840144235950    -19.406073004200
     295   99  1   0.96400    -18.939434228300     -1.318844366850     10.769678213000
     296   99  2  -0.48200    -19.271589024400     -0.958737310735     11.019670411900
     297   99  2  -0.48200    -18.607279432100     -1.678951422970     10.519686014100
     298  100  1   0.96400    -16.291402542900     18.652707194200      9.514513380220
     299  100  2  -0.48200    -16.162841718200     18.127582118400      9.413440292220
     300  100  2  -0.48200    -16.419963367600     19.177832270000      9.615586468220
     301  101  1   0.96400     12.701368728900     -9.574313559890     -5.443224911680
     302  101  2  -0.48200     12.992353687200     -9.630902795290     -4.979948091130
     303  101  2  -0.48200     12.410383770500     -9.517724324490     -5.906501732220
     304  102  1   0.96400     -1.761659687340      5.272766600710    -14.205950633400
     305  102  2  -0.48200     -2.233664388760      5.554386003960    -14.185898861800
     306  102  2  -0.48200     -1.289654985920      4.991147197460    -14.226002405100
     307  103  1   0.96400     -3.919646417620     10.046539686300    -13.649758089700
     308  103  2  -0.48200     -4.102663461300     10.563358903500    -13.693377562600
     309  103  2  -0.48200     -3.736629373940      9.529720469040    -13.606138616900
     310  104  1   0.96400     13.090984170000      7.266892906470    -13.884981645600
     311  104  2  -0.48200     12.935067298100      7.579327011190    -13.460040638700
     312  104  2  -0.48200     13.246901041900      6.954458801750    -14.309922652400
     313  105  1   0.96400    -13.721221513600      2.750520004010    -18.694766370500
     314  105  2  -0.48200    -14.230699457800      2.728625469640    -18.488725467400
     315  105  2  -0.48200    -13.211743569500      2.772414538380    -18.900807273600
     316  106  1   0.96400     -8.254599224990      3.211164336460     -5.261097583440
     317  106  2  -0.48200     -8.326919904890      3.105628251750     -4.726184642790
     318  106  2  -0.48200     -8.182278545080      3.316700421180     -5.796010524100
     319  107  1   0.96400     -4.512053916310     13.367456308800     -2.950102748810
     320  107  2  -0.48200     -4.943089120980     13.421128177200     -3.287486777590
     321  107  2  -0.48200     -4.081018711640     13.313784440400     -2.612718720030
     322  108  1   0.96400    -15.819352368000    -20.870061361600     -1.031404067320
     323  108  2  -0.48200    -15.689466316700    -20.939545662800     -1.561311177670
     324  108  2  -0.48200    -15.949238419200    -20.800577060500     -0.501496956974
     325  109  1   0.96400     16.517456176600     15.496599032000     -5.979642375480
     326  109  2  -0.48200     16.778531413700     15.894561924000     -5.704024420340
     327  109  2  -0.48200     16.256380939600     15.098636140000     -6.255260330620
     328  110  1   0.96400    -17.728933102000     13.290216784900      1.066743451920
     329  110  2  -0.48200    -18.080165764500     12.999407156400      0.759228611950
     330  110  2  -0.48200    -17.377700439500     13.581026413300      1.374258291880
     331  111  1   0.96400    -10.088249263200    -16.005467972400    -13.202712602000
     332  111  2  -0.48200     -9.790459702380    -16.465704487100    -13.157949581500
     333  111  2  -0.48200    -10.386038823900    -15.545231457700    -13.247475622600
     334  112  1   0.96400     11.434600284900    -20.681638472900     -2.083810806060
     335  112  2  -0.48200     10.976594261700    -20.781738063300     -1.796216378600
     336  112  2  -0.48200     11.892606308100    -20.581538882500     -2.371405233530
     337  113  1   0.96400    -16.374212328500     18.394003299700     16.160110832400
     338  113  2  -0.48200    -16.350245871200     18.777081150000     16.554035913500
     339  113  2  -0.48200    -16.398178785900     18.010925449300     15.766185751400
     340  114  1   0.96400    -17.907516930200      7.808496168730     -9.436768167910