LAMMPS Atom File

         3000 atoms
         2000 bonds
         1000 angles
           0 dihedrals
           0 impropers

           2 atom types
           1 bond types
           1 angle types

         0.0  41.8696780333 xlo xhi
         0.0  41.8696780333 ylo yhi
         0.0  41.8696780333 zlo zhi

Masses

         1    1.0e-20
         2   14.00670

Atoms

       1    1  1   0.96400    -14.355927773500     16.001351822300      0.376806076167
       2    1  2  -0.48200    -14.160221145800     16.431037009900      0.094725315618
       3    1  2  -0.48200    -14.551634401200     15.571666634700      0.658886836716
       4    2  1   0.96400     10.377081391700      1.182656673890     -0.773846552561
       5    2  2  -0.48200     10.599316586600      1.355957865520     -0.301534986826
       6    2  2  -0.48200     10.154846196800      1.009355482260     -1.246158118300
       7    3  1   0.96400    -12.503523022500    -18.613160926600     14.924213556400
       8    3  2  -0.48200    -12.551268557400    -18.123295281000     14.678750701500
       9    3  2  -0.48200    -12.455777487600    -19.103026572300     15.169676411200
      10    4  1   0.96400     15.261710665300    -17.199873696300     -0.795541578564
      11    4  2  -0.48200     14.877140910900    -16.910090351800     -1.061307861690
      12    4  2  -0.48200     15.646280419700    -17.489657040900     -0.529775295439
      13    5  1   0.96400     -8.987176935730     17.101747875700     -2.671023712110
      14    5  2  -0.48200     -8.820266999750     16.759453398800     -3.067855621590
      15    5  2  -0.48200     -9.154086871700     17.444042352600     -2.274191802630
      16    6  1   0.96400     -4.377183025550     19.604339781100    -19.544397168900
      17    6  2  -0.48200     -3.893786061490     19.370852928900    -19.424767469400
      18    6  2  -0.48200     -4.860579989620     19.837826633300    -19.664026868300
      19    7  1   0.96400     19.607093729900      6.262597998710     -3.550650741240
      20    7  2  -0.48200     19.968503424900      6.155638227470     -3.951203658690
      21    7  2  -0.48200     19.245684034900      6.369557769950     -3.150097823790
      22    8  1   0.96400     16.727757249200     -0.114447655395      6.700030273800
      23    8  2  -0.48200     16.327619020500     -0.413855705051      6.929691367080
      24    8  2  -0.48200     17.127895477900      0.184960394262      6.470369180520
      25    9  1   0.96400      6.822392068980     14.715639276100    -20.073751564100
      26    9  2  -0.48200      7.013879190880     15.010177892300    -20.496929642100
      27    9  2  -0.48200      6.630904947090     14.421100659900    -19.650573486100
      28   10  1   0.96400     13.272572971300     -3.178646747320     20.679890213800
      29   10  2  -0.48200     13.562368329300     -3.220983008990     20.214351502900
      30   10  2  -0.48200     12.982777613200     -3.136310485650     21.145428924822
      31   11  1   0.96400     -1.732594872610     -3.387644264020    -15.897095006100
      32   11  2  -0.48200     -1.731323508840     -3.563008932320    -15.375802749600
      33   11  2  -0.48200     -1.733866236380     -3.212279595720    -16.418387262700
      34   12  1   0.96400    -10.736482104700     -6.820296803480      1.941462310900
      35   12  2  -0.48200    -10.929561346100     -6.316022108740      2.045996701250
      36   12  2  -0.48200    -10.543402863200     -7.324571498220      1.836927920550
      37   13  1   0.96400    -12.020381060500    -14.941377513400     17.915765679400
      38   13  2  -0.48200    -12.120801535800    -14.411982588000     18.026023291600
      39   13  2  -0.48200    -11.919960585200    -15.470772438900     17.805508067200
      40   14  1   0.96400    -15.327385375700     -8.878853627790     11.091242692500
      41   14  2  -0.48200    -15.286344971800     -9.230939929450     11.511779161100
      42   14  2  -0.48200    -15.368425779700     -8.526767326120     10.670706223900
      43   15  1   0.96400     11.132218434400     15.081864218200     16.637288554100
      44   15  2  -0.48200     10.728757644500     14.929719574100     16.295863015600
      45   15  2  -0.48200     11.535679224200     15.234008862200     16.978714092600
      46   16  1   0.96400    -18.147599185000    -18.856332995900      3.511825325040
      47   16  2  -0.48200    -18.596458088600    -19.163428168600      3.429860457560
      48   16  2  -0.48200    -17.698740281300    -18.549237823200      3.593790192520
      49   17  1   0.96400    -11.366870937200    -10.608510258700      8.035674701510
      50   17  2  -0.48200    -11.131581081800    -10.149021441400      8.225434314610
      51   17  2  -0.48200    -11.602160792700    -11.067999075900      7.845915088410
      52   18  1   0.96400      1.655726719770     -1.616168385900     16.519668362000
      53   18  2  -0.48200      1.393216846380     -1.163930655280     16.349170264200
      54   18  2  -0.48200      1.918236593170     -2.068406116510     16.690166459900
      55   19  1   0.96400    -13.515630758200     -2.232277587640    -13.947721600500
      56   19  2  -0.48200    -13.343592982500     -1.728062690130    -13.811082144700
      57   19  2  -0.48200    -13.687668533900     -2.736492485140    -14.084361056300
      58   20  1   0.96400     17.244744453900    -18.031674839300      7.329727307740
      59   20  2  -0.48200     17.390620726500    -17.512487230100      7.221725735430
      60   20  2  -0.48200     17.098868181300    -18.550862448400      7.437728880050
      61   21  1   0.96400      1.018483846300     -4.623519014160     14.159749029300
      62   21  2  -0.48200      1.481363243680     -4.623120012040     14.456805428400
      63   21  2  -0.48200      0.555604448907     -4.623918016290     13.862692630100
      64   22  1   0.96400     -1.178334806630     -7.969495079570     18.382445410800
      65   22  2  -0.48200     -1.172678657690     -8.320043959830     17.958672487500
      66   22  2  -0.48200     -1.183990955560     -7.618946199310     18.806218334100
      67   23  1   0.96400    -18.245681647700      0.806283183684    -15.406039775300
      68   23  2  -0.48200    -18.452479022600      1.191700513940    -15.739488912800
      69   23  2  -0.48200    -18.038884272900      0.420865853422    -15.072590637900
      70   24  1   0.96400    -16.884327110300     18.159474505400      0.358689079274
      71   24  2  -0.48200    -16.652886239100     18.502478506200      0.721019561766
      72   24  2  -0.48200    -17.115767981500     17.816470504500     -0.003641403219
      73   25  1   0.96400     -4.698645684360    -12.750514805000     12.001657272400
      74   25  2  -0.48200     -4.858242172620    -12.476346325400     11.552368272100
      75   25  2  -0.48200     -4.539049196100    -13.024683284500     12.450946272700
      76   26  1   0.96400     10.085634476800     -3.568254620650     10.318814031600
      77   26  2  -0.48200      9.932150884020     -3.046552477480     10.401091978600
      78   26  2  -0.48200     10.239118069500     -4.089956763820     10.236536084500
      79   27  1   0.96400    -12.266556884600      2.023132622640      5.822019728570
      80   27  2  -0.48200    -11.936880864200      1.758822129700      6.174090296560
      81   27  2  -0.48200    -12.596232905100      2.287443115590      5.469949160570
      82   28  1   0.96400     16.385178637700     -8.845125008360    -14.355906654300
      83   28  2  -0.48200     16.159831931900     -8.700751544670    -13.875411945600
      84   28  2  -0.48200     16.610525343500     -8.989498472060    -14.836401363100
      85   29  1   0.96400     18.222913305200     20.861912051500     10.040425729200
      86   29  2  -0.48200     18.323001756000     21.035867050522      9.528349601700
      87   29  2  -0.48200     18.122824854300     20.687957052600     10.552501856700
      88   30  1   0.96400    -14.513787566200     -5.907954248970      7.201948734850
      89   30  2  -0.48200    -14.181753034600     -6.342776091630      7.145530342690
      90   30  2  -0.48200    -14.845822097800     -5.473132406310      7.258367127010
      91   31  1   0.96400     10.943591361700     20.554029339200     18.538773384200
      92   31  2  -0.48200     11.407147380800     20.589128963500     18.244862116100
      93   31  2  -0.48200     10.480035342600     20.518929714900     18.832684652200
      94   32  1   0.96400      8.010654970190     -6.305611505770     10.152320705700
      95   32  2  -0.48200      8.110225443930     -6.771274746250     10.427536016400
      96   32  2  -0.48200      7.911084496440     -5.839948265290      9.877105395040
      97   33  1   0.96400     18.220457059300    -19.647778092800    -20.563177819400
      98   33  2  -0.48200     18.110199690100    -20.137227768900    -20.788527164000
      99   33  2  -0.48200     18.330714428500    -19.158328416700    -20.337828474900
     100   34  1   0.96400     -9.386776298330    -18.161961452000      5.023536146170
     101   34  2  -0.48200     -9.457643668580    -18.464458160700      5.477379243550
     102   34  2  -0.48200     -9.315908928080    -17.859464743200      4.569693048780
     103   35  1   0.96400     -5.112315009180     -9.129023135360     18.843877576600
     104   35  2  -0.48200     -5.227213027840     -8.603802279700     18.959815051400
     105   35  2  -0.48200     -4.997416990530     -9.654243991030     18.727940101700
     106   36  1   0.96400     17.161526455300    -16.572910501000    -15.421256415200
     107   36  2  -0.48200     17.527665145100    -16.350128151800    -15.076567447200
     108   36  2  -0.48200     16.795387765500    -16.795692850200    -15.765945383300
     109   37  1   0.96400     -0.941431614755     13.614323131100     19.469337292200
     110   37  2  -0.48200     -0.814090159726     13.104718653900     19.306280766000
     111   37  2  -0.48200     -1.068773069780     14.123927608200     19.632393818300
     112   38  1   0.96400      1.618763482550      0.258312205443     -1.979500273330
     113   38  2  -0.48200      1.282392824070      0.693308873259     -1.967981631720
     114   38  2  -0.48200      1.955134141030     -0.176684462372     -1.991018914950
     115   39  1   0.96400    -15.699719576400     -2.086202571260    -20.387144719600
     116   39  2  -0.48200    -15.879260082100     -1.709734032390    -20.745664797200
     117   39  2  -0.48200    -15.520179070700     -2.462671110140    -20.028624642000
     118   40  1   0.96400    -13.760785425500     18.575957753500     -7.931476959220
     119   40  2  -0.48200    -14.251346067700     18.366578338700     -7.797273692270
     120   40  2  -0.48200    -13.270224783200     18.785337168400     -8.065680226170
     121   41  1   0.96400    -14.223313578600     -8.624482035320    -19.632275788900
     122   41  2  -0.48200    -14.136731282700     -8.645053303770    -19.089523240400
     123   41  2  -0.48200    -14.309895874500     -8.603910766870    -20.175028337400
     124   42  1   0.96400     -3.299804439840     16.119598502600    -11.382908088000
     125   42  2  -0.48200     -2.915851018090     16.325305443700    -11.047103942300
     126   42  2  -0.48200     -3.683757861580     15.913891561500    -11.718712233800
     127   43  1   0.96400     11.685416621500     13.170301824000      5.340288108130
     128   43  2  -0.48200     11.795520530100     13.181677018200      5.879034555230
     129   43  2  -0.48200     11.575312712900     13.158926629900      4.801541661020
     130   44  1   0.96400     -7.072801535790     -8.910211826800     -5.031030469180
     131   44  2  -0.48200     -7.542916511720     -8.626422360570     -5.061940795310
     132   44  2  -0.48200     -6.602686559860     -9.194001293040     -5.000120143050
     133   45  1   0.96400     -1.092239901940     -0.845384740561    -14.188520632800
     134   45  2  -0.48200     -1.126186651320     -1.103679652050    -14.672908243000
     135   45  2  -0.48200     -1.058293152570     -0.587089829071    -13.704133022600
     136   46  1   0.96400    -17.782058841800     20.851257267900    -11.701070917500
     137   46  2  -0.48200    -17.797061412500     20.553289646600    -12.163120935900
     138   46  2  -0.48200    -17.767056271100     21.149224889222    -11.239020899000
     139   47  1   0.96400      2.360032564630      6.146927659200     12.784966081100
     140   47  2  -0.48200      2.808834450300      6.461334327360     12.832139319600
     141   47  2  -0.48200      1.911230678950      5.832520991040     12.737792842700
     142   48  1   0.96400     16.392413475900      2.822609716870     17.029642976500
     143   48  2  -0.48200     15.884539186800      2.895065640500     17.227920170500
     144   48  2  -0.48200     16.900287764900      2.750153793240     16.831365782400
     145   49  1   0.96400      2.364275122110    -12.359639977100     -5.158495900750
     146   49  2  -0.48200      2.055534990840    -11.987705494400     -5.420877820720
     147   49  2  -0.48200      2.673015253370    -12.731574459800     -4.896113980780
     148   50  1   0.96400     -3.857905219690      1.888362035780     -0.871904770801
     149   50  2  -0.48200     -3.709575494300      1.533300327570     -0.478929611368
     150   50  2  -0.48200     -4.006234945080      2.243423743990     -1.264879930230
     151   51  1   0.96400     -6.516226489720    -14.885079710600     -5.302502492140
     152   51  2  -0.48200     -6.063671906190    -15.048646934700     -5.036156641560
     153   51  2  -0.48200     -6.968781073260    -14.721512486500     -5.568848342720
     154   52  1   0.96400     19.078762706700    -10.151939986900    -17.392272223000
     155   52  2  -0.48200     19.612129644900    -10.019237923500    -17.372026936700
     156   52  2  -0.48200     18.545395768500    -10.284642050300    -17.412517509300
     157   53  1   0.96400     -6.347228846760     -0.200305796653     -7.213776714150
     158   53  2  -0.48200     -6.099419692550      0.175920140046     -7.529283715090
     159   53  2  -0.48200     -6.595038000970     -0.576531733353     -6.898269713210
     160   54  1   0.96400    -10.871406598900      1.618964066520     -9.212090664300
     161   54  2  -0.48200    -11.135426910700      1.136986741880     -9.189929132190
     162   54  2  -0.48200    -10.607386287100      2.100941391160     -9.234252196420
     163   55  1   0.96400     -7.354274237790     10.206457837400      3.839393551860
     164   55  2  -0.48200     -7.090162302570     10.676295334500      3.948927162790
     165   55  2  -0.48200     -7.618386173010      9.736620340180      3.729859940930
     166   56  1   0.96400     16.876237738100    -13.781863693800      7.248747215050
     167   56  2  -0.48200     17.146183910200    -13.603238127500      7.693406602940
     168   56  2  -0.48200     16.606291566000    -13.960489260100      6.804087827160
     169   57  1   0.96400      5.443397266160      7.126915533470     -3.803564931610
     170   57  2  -0.48200      5.239159768960      6.827797152010     -3.389662481000
     171   57  2  -0.48200      5.647634763350      7.426033914920     -4.217467382210
     172   58  1   0.96400     -7.197453345550     16.015363760900      0.241359203634
     173   58  2  -0.48200     -7.528616087670     15.624561791500      0.041096728576
     174   58  2  -0.48200     -6.866290603430     16.406165730300      0.441621678693
     175   59  1   0.96400     -9.767784339460      2.365346313780    -20.671742110100
     176   59  2  -0.48200     -9.869491024660      2.863778708750    -20.880837537700
     177   59  2  -0.48200     -9.666077654260      1.866913918810    -20.462646682500
     178   60  1   0.96400     18.638235732200     16.673707745100    -20.379412353000
     179   60  2  -0.48200     18.718646319200     16.231875857100    -20.696931990600
     180   60  2  -0.48200     18.557825145200     17.115539633000    -20.061892715400
     181   61  1   0.96400      3.850016473030      5.676216432250      2.073967054000
     182   61  2  -0.48200      4.386153377060      5.729517579810      2.184494009120
     183   61  2  -0.48200      3.313879569000      5.622915284680      1.963440098880
     184   62  1   0.96400     -1.647077246020     -5.524730547260     -5.352468176810
     185   62  2  -0.48200     -1.158623644470     -5.365499042850     -5.156105229360
     186   62  2  -0.48200     -2.135530847570     -5.683962051660     -5.548831124270
     187   63  1   0.96400     14.152642768000     -1.169760361000     17.791839065700
     188   63  2  -0.48200     13.727498537400     -1.450783197630     17.585009308500
     189   63  2  -0.48200     14.577786998700     -0.888737524365     17.998668822800
     190   64  1   0.96400    -10.782350073800     -0.726087357951     -3.194475003910
     191   64  2  -0.48200    -10.933774538800     -0.805976535454     -3.717149233920
     192   64  2  -0.48200    -10.630925608800     -0.646198180449     -2.671800773900
     193   65  1   0.96400     10.521410571600    -14.291594112900    -16.286609938300
     194   65  2  -0.48200     10.418941035400    -13.892196777800    -15.922629495200
     195   65  2  -0.48200     10.623880107900    -14.690991447900    -16.650590381400
     196   66  1   0.96400    -10.945422237500      1.354544926460    -12.255410555300
     197   66  2  -0.48200    -10.540122995100      1.696927169530    -12.110472900500
     198   66  2  -0.48200    -11.350721479800      1.012162683400    -12.400348210100
     199   67  1   0.96400     -3.322513556650    -19.293785813200     -8.957480887600
     200   67  2  -0.48200     -3.425944052120    -19.531066763700     -8.472197585640
     201   67  2  -0.48200     -3.219083061170    -19.056504862800     -9.442764189570
     202   68  1   0.96400     12.401798961900      3.788136212630     -7.861411031950
     203   68  2  -0.48200     12.288494391100      3.250538118380     -7.886913253190
     204   68  2  -0.48200     12.515103532700      4.325734306880     -7.835908810720
     205   69  1   0.96400     -5.428654648830    -14.706591243200    -18.213220848700
     206   69  2  -0.48200     -5.813498182080    -14.828014807000    -18.586920959900
     207   69  2  -0.48200     -5.043811115570    -14.585167679500    -17.839520737500
     208   70  1   0.96400     17.396786373700     -3.544631412810    -17.232618843900
     209   70  2  -0.48200     17.227953999500     -3.997975141530    -17.494296303800
     210   70  2  -0.48200     17.565618747900     -3.091287684090    -16.970941383900
     211   71  1   0.96400     -9.842435304030      9.711038109460     -7.260936548230
     212   71  2  -0.48200     -9.984913814580      9.193130002670     -7.379135816210
     213   71  2  -0.48200     -9.699956793490     10.228946216300     -7.142737280240
     214   72  1   0.96400     17.229823608800      8.694307670180      1.694131171430
     215   72  2  -0.48200     17.747619741700      8.748542023850      1.871460806830
     216   72  2  -0.48200     16.712027475800      8.640073316520      1.516801536040
     217   73  1   0.96400     19.818072191600    -16.414360839200     20.300794223400
     218   73  2  -0.48200     20.081399653200    -16.238683557700     19.851020790700
     219   73  2  -0.48200     19.554744730100    -16.590038120600     20.750567656100
     220   74  1   0.96400    -10.710908389500    -20.046198025700    -19.332868846300
     221   74  2  -0.48200    -10.405024247700    -19.591783878000    -19.382292263200
     222   74  2  -0.48200    -11.016792531300    -20.500612173400    -19.283445429400
     223   75  1   0.96400    -15.880459955800    -18.364710416800      9.222557303900
     224   75  2  -0.48200    -16.007289841400    -18.635758671300      8.761095470330
     225   75  2  -0.48200    -15.753630070300    -18.093662162300      9.684019137470
     226   76  1   0.96400     20.884103419900    -10.330919559200     16.248356617900
     227   76  2  -0.48200     20.483131335200    -10.687752587500     16.128391717900
     228   76  2  -0.48200     21.285075504622     -9.974086530980     16.368321517900
     229   77  1   0.96400     13.438595827000    -11.270872265600     14.625990066800
     230   77  2  -0.48200     13.317375807200    -11.701472220100     14.306006651600
     231   77  2  -0.48200     13.559815846800    -10.840272311200     14.945973482000
     232   78  1   0.96400     11.091001160300     -5.041504810630    -15.231320055400
     233   78  2  -0.48200     11.393229763900     -4.827131448450    -14.824869649100
     234   78  2  -0.48200     10.788772556700     -5.255878172820    -15.637770461700
     235   79  1   0.96400      2.495450628860     11.644364693700     -7.783362598230
     236   79  2  -0.48200      2.314548685980     11.735662861800     -7.272051409650
     237   79  2  -0.48200      2.676352571740     11.553066525600     -8.294673786800
     238   80  1   0.96400     19.716191996000      6.140580593350    -17.761323481200
     239   80  2  -0.48200     19.699075577500      6.690311991680    -17.759768517300
     240   80  2  -0.48200     19.733308414500      5.590849195030    -17.762878445200
     241   81  1   0.96400     -7.850083972200     20.325470905800     12.318186893600
     242   81  2  -0.48200     -7.500034172530     20.448551458800     11.912211136700
     243   81  2  -0.48200     -8.200133771880     20.202390352800     12.724162650500
     244   82  1   0.96400     -2.185160584450    -10.373742568600     15.188258584300
     245   82  2  -0.48200     -2.126073692610    -10.318281139300     14.644261554000
     246   82  2  -0.48200     -2.244247476280    -10.429203997800     15.732255614700
     247   83  1   0.96400    -16.920206323300    -10.400517909400     16.722760157000
     248   83  2  -0.48200    -16.566965249000    -10.149349525200     16.384181973800
     249   83  2  -0.48200    -17.273447397600    -10.651686293700     17.061338340200
     250   84  1   0.96400      5.527777885610      9.084518115860      9.308160843430
     251   84  2  -0.48200      5.753319752510      9.225353356600      9.789613126890
     252   84  2  -0.48200      5.302236018710      8.943682875130      8.826708559980
     253   85  1   0.96400     12.145295561700      6.386772210810      3.672319704490
     254   85  2  -0.48200     11.765960495300      6.225584396450      3.308144752160
     255   85  2  -0.48200     12.524630628100      6.547960025160      4.036494656830
     256   86  1   0.96400    -10.534973039000     -9.360524463400     -2.646909279760
     257   86  2  -0.48200    -10.308301320400     -9.772980514780     -2.362304399850
     258   86  2  -0.48200    -10.761644757600     -8.948068412030     -2.931514159680
     259   87  1   0.96400     17.284074538300    -13.851762850500     12.706072378900
     260   87  2  -0.48200     17.737698292100    -13.824295458900     12.396280461000
     261   87  2  -0.48200     16.830450784600    -13.879230242000     13.015864296900
     262   88  1   0.96400    -12.384646530900    -12.224099699400     14.839785087300
     263   88  2  -0.48200    -12.619814109100    -11.729682509100     14.892205046300
     264   88  2  -0.48200    -12.149478952700    -12.718516889700     14.787365128300
     265   89  1   0.96400     14.349348761900    -12.588849547100    -13.664171912500
     266   89  2  -0.48200     14.329736548000    -12.554204890800    -14.212729210200
     267   89  2  -0.48200     14.368960975700    -12.623494203400    -13.115614614800
     268   90  1   0.96400    -20.443919483200     -8.246183008330    -19.150834642400
     269   90  2  -0.48200    -20.451214879200     -8.791921383580    -19.082890525700
     270   90  2  -0.48200    -20.436624087300     -7.700444633090    -19.218778759000
     271   91  1   0.96400    -16.365770768200    -20.868039488000      6.406894665030
     272   91  2  -0.48200    -16.012676408100    -20.511963387500      6.180987198270
     273   91  2  -0.48200    -16.718865128300    -21.224115588522      6.632802131780
     274   92  1   0.96400     12.660522127800    -10.647037341700     -4.219832411050
     275   92  2  -0.48200     12.923355004100    -10.485726821400     -4.675241891820
     276   92  2  -0.48200     12.397689251400    -10.808347861900     -3.764422930280
     277   93  1   0.96400     -2.089283994300      5.176249663830    -12.904604749800
     278   93  2  -0.48200     -1.839090256580      5.385669831900    -13.347375894700
     279   93  2  -0.48200     -2.339477732020      4.966829495760    -12.461833604800
     280   94  1   0.96400     -1.781442593380     10.699250742000    -12.319622465500
     281   94  2  -0.48200     -2.022732114470     11.136823163700    -12.089818760800
     282   94  2  -0.48200     -1.540153072290     10.261678320200    -12.549426170300
     283   95  1   0.96400      9.912555791760      7.747960020940    -14.663600188600
     284   95  2  -0.48200      9.710161273840      8.137015360040    -14.995522472000
     285   95  2  -0.48200     10.114950309700      7.358904681830    -14.331677905100
     286   96  1   0.96400    -13.950801276200     -0.857292977394    -18.011645594700
     287   96  2  -0.48200    -14.277865784000     -0.949151241172    -17.579105576700
     288   96  2  -0.48200    -13.623736768500     -0.765434713616    -18.444185612700
     289   97  1   0.96400     -9.666975616620      5.668537655490     -7.044928402980
     290   97  2  -0.48200     -9.846478975740      5.160333061880     -7.154503195270
     291   97  2  -0.48200     -9.487472257510      6.176742249090     -6.935353610690
     292   98  1   0.96400     -8.845706204760     13.253813690300     -1.735500318200
     293   98  2  -0.48200     -8.475755956820     13.651867112400     -1.820295879330
     294   98  2  -0.48200     -9.215656452700     12.855760268200     -1.650704757060
     295   99  1   0.96400    -14.160711213400    -20.067794608900     -2.198128565630
     296   99  2  -0.48200    -13.943095543800    -20.029218374800     -1.694486535490
     297   99  2  -0.48200    -14.378326882900    -20.106370842900     -2.701770595770
     298  100  1   0.96400     16.303475476400     16.406166335000    -11.413074918700
     299  100  2  -0.48200     16.428530348200     16.137923529200    -10.949494207100
     300  100  2  -0.48200     16.178420604700     16.674409140800    -11.876655630300
     301  101  1   0.96400    -16.418579638900      9.301086054630      2.421402007960
     302  101  2  -0.48200    -16.198292639700      8.811551763100      2.301694800980
     303  101  2  -0.48200    -16.638866638100      9.790620346150      2.541109214940
     304  102  1   0.96400     -9.985841349110    -12.730913004500    -11.267279784000
     305  102  2  -0.48200    -10.285919945600    -13.092334846700    -10.981225439700
     306  102  2  -0.48200     -9.685762752590    -12.369491162200    -11.553334128200
     307  103  1   0.96400      6.033176566680     18.384765309200     -3.062376791330
     308  103  2  -0.48200      5.768041180250     18.101315843500     -2.672685083360
     309  103  2  -0.48200      6.298311953100     18.668214774900     -3.452068499290
     310  104  1   0.96400    -10.689632240600     -0.301522717968     18.640548922000
     311  104  2  -0.48200    -11.203782274900     -0.150597673912     18.516567579500
     312  104  2  -0.48200    -10.175482206300     -0.452447762025     18.764530264600
     313  105  1   0.96400    -17.122947267600    -18.904299322100     18.561117169500
     314  105  2  -0.48200    -16.601800647700    -18.758279529400     18.659017224100
     315  105  2  -0.48200    -17.644093887500    -19.050319114800     18.463217114900
     316  106  1   0.96400    -18.384025433500     17.264244042700    -11.191697492900
     317  106  2  -0.48200    -18.765734188900     16.946052872000    -11.427393918300
     318  106  2  -0.48200    -18.002316678000     17.582435213300    -10.956001067500
     319  107  1   0.96400     12.115267212200    -10.939995576800    -18.954230445700
     320  107  2  -0.48200     11.809466844100    -11.374420791900    -18.811889771900
     321  107  2  -0.48200     12.421067580200    -10.505570361800    -19.096571119400
     322  108  1   0.96400     20.848317364400      2.816419770380      6.831422373630
     323  108  2  -0.48200     20.803478619700      2.736222941640      7.373693482610
     324  108  2  -0.48200     20.893156109000      2.896616599130      6.289151264650
     325  109  1   0.96400    -14.361826559600     -1.898297226010     17.855698371500
     326  109  2  -0.48200    -14.822882929800     -2.163883568250     17.994949649100
     327  109  2  -0.48200    -13.900770189400     -1.632710883770     17.716447093900
     328  110  1   0.96400     -5.583834733080      6.673824633970     -6.700699085700
     329  110  2  -0.48200     -5.900199240750      6.582622200090     -6.260136247570
     330  110  2  -0.48200     -5.267470225410      6.765027067840     -7.141261923840
     331  111  1   0.96400      0.542803116832     18.353841757900    -14.955178845200
     332  111  2  -0.48200      0.110637345344     18.294410661500    -15.290142560800
     333  111  2  -0.48200      0.974968888320     18.413272854300    -14.620215129700
     334  112  1   0.96400    -17.947382102500     -6.902244111610     -2.518568259840
     335  112  2  -0.48200    -18.116565569200     -7.399403121530     -2.355136704010
     336  112  2  -0.48200    -17.778198635800     -6.405085101690     -2.681999815680
     337  113  1   0.96400     14.517871934900     -7.732587417070     11.346021563100
     338  113  2  -0.48200     14.258569989100     -8.118007554580     11.640493664500
     339  113  2  -0.48200     14.777173880700     -7.347167279550     11.051549461700
     340  114  1   0.96400     -9.030487752740    -10.782153133500     -8.481600674540