LAMMPS Atom File

         3000 atoms
         2000 bonds
         1000 angles
           0 dihedrals
           0 impropers

           2 atom types
           1 bond types
           1 angle types

         0.0  37.5352924348 xlo xhi
         0.0  37.5352924348 ylo yhi
         0.0  37.5352924348 zlo zhi

Masses

         1    1.0e-20
         2   14.00670

Atoms

       1    1  1   0.96400    -12.398651749100     13.577532928700     -1.608383038900
       2    1  2  -0.48200    -11.887632277600     13.380638741800     -1.557473522300
       3    1  2  -0.48200    -12.909671220600     13.774427115600     -1.659292555500
       4    2  1   0.96400    -10.875491507800    -16.174385953800     15.432950699700
       5    2  2  -0.48200    -11.050024583300    -15.758552001100     15.118116887300
       6    2  2  -0.48200    -10.700958432400    -16.590219906400     15.747784512100
       7    3  1   0.96400     12.558206133500    -15.961238584600     -0.181268284511
       8    3  2  -0.48200     12.746721750400    -15.561045382400     -0.508082089407
       9    3  2  -0.48200     12.369690516600    -16.361431786900      0.145545520385
      10    4  1   0.96400    -11.794045237200     17.794989076900     -1.868183354010
      11    4  2  -0.48200    -11.940785915600     17.922457258000     -1.353674815610
      12    4  2  -0.48200    -11.647304558700     17.667520895800     -2.382691892410
      13    5  1   0.96400     -7.496005276040     13.829630492500    -16.651466136700
      14    5  2  -0.48200     -8.023340095370     13.884657032900    -16.797719574900
      15    5  2  -0.48200     -6.968670456710     13.774603952000    -16.505212698600
      16    6  1   0.96400     15.779860769100     -0.684690131345     -3.576545180410
      17    6  2  -0.48200     15.610570638500     -1.171348583720     -3.768910464250
      18    6  2  -0.48200     15.949150899700     -0.198031678972     -3.384179896560
      19    7  1   0.96400     12.047619243000     -4.819682229790      5.111729384290
      20    7  2  -0.48200     12.390568599200     -5.038403506630      5.481927631350
      21    7  2  -0.48200     11.704669886800     -4.600960952950      4.741531137230
      22    8  1   0.96400      7.932578621950     12.185341416700    -17.390491242100
      23    8  2  -0.48200      8.031933860860     12.126034803400    -16.852800566900
      24    8  2  -0.48200      7.833223383040     12.244648029900    -17.928181917200
      25    9  1   0.96400     11.165815601600     -4.934155497600     16.467343542300
      26    9  2  -0.48200     11.460118888800     -4.687326347460     16.073692750600
      27    9  2  -0.48200     10.871512314500     -5.180984647750     16.860994334000
      28   10  1   0.96400     -2.340083281590     -5.690752993690    -11.986404915000
      29   10  2  -0.48200     -2.391036402830     -5.177336337470    -11.795860651000
      30   10  2  -0.48200     -2.289130160350     -6.204169649900    -12.176949179100
      31   11  1   0.96400     -8.342401294780     -4.648962264720      2.938123371860
      32   11  2  -0.48200     -8.426801033100     -5.028701687980      3.326935221720
      33   11  2  -0.48200     -8.258001556450     -4.269222841460      2.549311522000
      34   12  1   0.96400    -10.346467594300    -12.995602483600     11.925694494500
      35   12  2  -0.48200    -10.036121465400    -13.010877298500     12.379513798100
      36   12  2  -0.48200    -10.656813723200    -12.980327668700     11.471875190900
      37   13  1   0.96400    -12.032025890800     -7.018080223400     11.948937099400
      38   13  2  -0.48200    -11.914417692100     -7.512295756900     11.738178189600
      39   13  2  -0.48200    -12.149634089500     -6.523864689910     12.159696009200
      40   14  1   0.96400     15.506364886600     15.649634329600    -18.532538979500
      41   14  2  -0.48200     15.762563784800     15.632703172800    -19.018929214323
      42   14  2  -0.48200     15.250165988400     15.666565486400    -18.046148744800
      43   15  1   0.96400      8.533159000480     17.508385356700     17.305606556000
      44   15  2  -0.48200      9.052207560590     17.687867889100     17.276032702500
      45   15  2  -0.48200      8.014110440370     17.328902824300     17.335180409400
      46   16  1   0.96400    -15.432863611000     16.895443085300      1.440019524460
      47   16  2  -0.48200    -15.813532264900     16.536736781300      1.610081758260
      48   16  2  -0.48200    -15.052194957000     17.254149389300      1.269957290650
      49   17  1   0.96400     -7.023107782340     -2.324753927850      7.781521514240
      50   17  2  -0.48200     -7.486855376610     -2.070019278530      7.931682851610
      51   17  2  -0.48200     -6.559360188070     -2.579488577170      7.631360176860
      52   18  1   0.96400      0.118043857645     -2.376758093610     14.333872744100
      53   18  2  -0.48200      0.540854966712     -2.121084032060     14.092291411400
      54   18  2  -0.48200     -0.304767251421     -2.632432155170     14.575454076800
      55   19  1   0.96400     -9.062925061000     -3.045948346480    -15.181281852200
      56   19  2  -0.48200     -8.531210295960     -3.057506170020    -15.041118285700
      57   19  2  -0.48200     -9.594639826030     -3.034390522940    -15.321445418600
      58   20  1   0.96400     14.967539545900     17.875061414400      5.713756928090
      59   20  2  -0.48200     14.795940478500     17.365470704100      5.829390262750
      60   20  2  -0.48200     15.139138613200     18.384652124700      5.598123593430
      61   21  1   0.96400      4.741503512810     -7.286674945650     11.116923383000
      62   21  2  -0.48200      4.774227517570     -6.742892343070     11.041229125300
      63   21  2  -0.48200      4.708779508050     -7.830457548230     11.192617640600
      64   22  1   0.96400     -5.759014917500     -8.232807496380      1.022538572500
      65   22  2  -0.48200     -5.486909604060     -8.137957045060      0.554070761140
      66   22  2  -0.48200     -6.031120230930     -8.327657947700      1.491006383870
      67   23  1   0.96400     -2.145593732210     -7.353717993700    -18.659891186100
      68   23  2  -0.48200     -2.642351882190     -7.562482617960    -18.770112200823
      69   23  2  -0.48200     -1.648835582220     -7.144953369450    -18.549670171400
      70   24  1   0.96400    -14.364257927200      0.503986748273    -12.528575932200
      71   24  2  -0.48200    -14.309704175300     -0.043297374629    -12.526581697700
      72   24  2  -0.48200    -14.418811679100      1.051270871170    -12.530570166700
      73   25  1   0.96400     18.691294559200     18.130791254100     -0.737849255510
      74   25  2  -0.48200     19.184822829123     18.188159929500     -0.973727787603
      75   25  2  -0.48200     18.197766289300     18.073422578700     -0.501970723417
      76   26  1   0.96400     -5.681798912410    -11.065760165700     10.619058173700
      77   26  2  -0.48200     -5.930508781820    -11.370332463600     11.003608711600
      78   26  2  -0.48200     -5.433089043000    -10.761187867800     10.234507635800
      79   27  1   0.96400     10.001059603600     -1.739833498460      9.358329274040
      80   27  2  -0.48200      9.549656187860     -1.452952510860      9.486525433070
      81   27  2  -0.48200     10.452463019400     -2.026714486060      9.230133115020
      82   28  1   0.96400     15.586618349000    -16.199929892200    -10.681722510500
      83   28  2  -0.48200     15.836507444600    -15.995710442600    -10.236357653000
      84   28  2  -0.48200     15.336729253300    -16.404149341700    -11.127087368000
      85   29  1   0.96400     -6.301161203900      1.801273219510      5.271870189770
      86   29  2  -0.48200     -6.011731148180      1.974159297310      5.706428180090
      87   29  2  -0.48200     -6.590591259620      1.628387141720      4.837312199450
      88   30  1   0.96400     14.933093942000     -5.507255425500    -13.312243786500
      89   30  2  -0.48200     14.650016145000     -5.400275799830    -13.771506587700
      90   30  2  -0.48200     15.216171739000     -5.614235051170    -12.852980985300
      91   31  1   0.96400    -14.708508839400      5.331706341530    -10.262758416500
      92   31  2  -0.48200    -14.704142575600      5.848378404160    -10.451254876500
      93   31  2  -0.48200    -14.712875103200      4.815034278900    -10.074261956500
      94   32  1   0.96400     14.148581964000     15.764872619000      8.678485828690
      95   32  2  -0.48200     13.617265143000     15.764431947900      8.820620418350
      96   32  2  -0.48200     14.679898784900     15.765313290000      8.536351239030
      97   33  1   0.96400    -12.862770762200     -4.844218603520      7.189136917130
      98   33  2  -0.48200    -12.431658401100     -4.551990952660      7.365899843680
      99   33  2  -0.48200    -13.293883123300     -5.136446254390      7.012373990590
     100   34  1   0.96400      4.083554083950    -17.070670185400     14.202698794100
     101   34  2  -0.48200      3.872506194990    -16.817307305700     14.642887435200
     102   34  2  -0.48200      4.294601972900    -17.324033065100     13.762510153000
     103   35  1   0.96400      5.356672121940     -3.092625371750      5.735794225700
     104   35  2  -0.48200      5.260616401360     -3.600358470640      5.924156639230
     105   35  2  -0.48200      5.452727842510     -2.584892272850      5.547431812180
     106   36  1   0.96400     13.857141060200    -16.112272089000    -14.175278636800
     107   36  2  -0.48200     13.389450473900    -16.007303462900    -13.905561928000
     108   36  2  -0.48200     14.324831646500    -16.217240715200    -14.444995345600
     109   37  1   0.96400     -9.126302102930    -16.795639863800      3.966787920250
     110   37  2  -0.48200     -8.666075655130    -16.929572954800      4.236516568840
     111   37  2  -0.48200     -9.586528550730    -16.661706772700      3.697059271660
     112   38  1   0.96400     -5.070390674000     -6.162935379280     16.616533026200
     113   38  2  -0.48200     -5.279823936480     -5.665985293720     16.508466745600
     114   38  2  -0.48200     -4.860957411520     -6.659885464850     16.724599306900
     115   39  1   0.96400     15.205686541500    -13.323917211500    -14.306560425100
     116   39  2  -0.48200     14.821790773900    -13.355386888100    -14.699159073900
     117   39  2  -0.48200     15.589582309100    -13.292447535000    -13.913961776300
     118   40  1   0.96400      0.356195167837     11.875855530200     15.570687238000
     119   40  2  -0.48200      0.522678467471     11.363082041700     15.679529602900
     120   40  2  -0.48200      0.189711868202     12.388629018800     15.461844873000
     121   41  1   0.96400      2.607568932160      1.729940764400     -3.394041946250
     122   41  2  -0.48200      2.575130027450      2.094750783590     -2.983723329370
     123   41  2  -0.48200      2.640007836860      1.365130745200     -3.804360563120
     124   42  1   0.96400    -15.514124271800     -2.953269012140    -15.674462065700
     125   42  2  -0.48200    -15.183345091100     -2.963359132480    -16.113760737500
     126   42  2  -0.48200    -15.844903452600     -2.943178891800    -15.235163393900
     127   43  1   0.96400    -10.496484909400     14.903977085200     -3.804089909380
     128   43  2  -0.48200    -10.026917817300     14.867178692600     -3.520095852680
     129   43  2  -0.48200    -10.966052001600     14.940775477800     -4.088083966090
     130   44  1   0.96400     15.918362605600     11.989476553500      1.847369590010
     131   44  2  -0.48200     15.885055337300     11.445283478800      1.774950508270
     132   44  2  -0.48200     15.951669873900     12.533669628100      1.919788671750
     133   45  1   0.96400    -10.287892396400     -9.665485524060     17.497122983000
     134   45  2  -0.48200     -9.750549196090     -9.548314582780     17.491356218400
     135   45  2  -0.48200    -10.825235596800     -9.782656465330     17.502889747600
     136   46  1   0.96400     -4.664674970590     12.987957145100     -4.823960632580
     137   46  2  -0.48200     -5.146850907720     12.794215146800     -4.643765172640
     138   46  2  -0.48200     -4.182499033460     13.181699143300     -5.004156092520
     139   47  1   0.96400     11.272573481800     10.963897928700      2.256735266530
     140   47  2  -0.48200     11.143163028400     10.446442772300      2.390873611990
     141   47  2  -0.48200     11.401983935100     11.481353085100      2.122596921070
     142   48  1   0.96400     -4.255562605180     -7.770294700050     -9.235578285600
     143   48  2  -0.48200     -4.061041233140     -7.287139518820     -9.412277200910
     144   48  2  -0.48200     -4.450083977210     -8.253449881290     -9.058879370290
     145   49  1   0.96400     -1.714153392450     -0.422875499977    -14.823650332100
     146   49  2  -0.48200     -1.831407816880     -0.448266868159    -15.360406029200
     147   49  2  -0.48200     -1.596898968010     -0.397484131795    -14.286894635000
     148   50  1   0.96400    -13.089679166100     17.182539694700     -7.969689485030
     149   50  2  -0.48200    -13.548595765400     17.251731354700     -7.674548723580
     150   50  2  -0.48200    -12.630762566800     17.113348034800     -8.264830246490
     151   51  1   0.96400     -0.210735907576      3.928860150210     10.775064574800
     152   51  2  -0.48200     -0.451410162410      3.434318314400     10.777132350500
     153   51  2  -0.48200      0.029938347257      4.423401986010     10.772996799100
     154   52  1   0.96400     13.532102811900      9.314061267170     16.081144464600
     155   52  2  -0.48200     13.439592894800      9.833545930930     15.925974882000
     156   52  2  -0.48200     13.624612729100      8.794576603400     16.236314047100
     157   53  1   0.96400     -1.803289316360     -8.473970218100     -7.129605362460
     158   53  2  -0.48200     -1.618043077330     -8.829813078070     -6.753361173220
     159   53  2  -0.48200     -1.988535555390     -8.118127358140     -7.505849551700
     160   54  1   0.96400      0.087389156503      1.305500199420     -0.183663091094
     161   54  2  -0.48200     -0.308769697663      1.583781787870      0.077330241758
     162   54  2  -0.48200      0.483548010669      1.027218610960     -0.444656423947
     163   55  1   0.96400      0.657367856629    -12.710737966700     -3.947680484770
     164   55  2  -0.48200      0.489243528697    -12.558673358600     -4.448789819480
     165   55  2  -0.48200      0.825492184562    -12.862802574700     -3.446571150060
     166   56  1   0.96400     17.358885882900     -9.336748245170    -13.703668105800
     167   56  2  -0.48200     17.674988503500     -8.930691700860    -13.897825814900
     168   56  2  -0.48200     17.042783262200     -9.742804789490    -13.509510396600
     169   57  1   0.96400     -6.978609154760     -2.114894156050     -5.515867293630
     170   57  2  -0.48200     -7.156662388180     -2.622257836190     -5.400199051930
     171   57  2  -0.48200     -6.800555921330     -1.607530475900     -5.631535535320
     172   58  1   0.96400    -10.234865676000      3.538243067410     -4.705681894960
     173   58  2  -0.48200     -9.875020313600      3.522738697490     -4.290024668760
     174   58  2  -0.48200    -10.594711038300      3.553747437320     -5.121339121170
     175   59  1   0.96400     -4.138664270080     11.445251042000      2.256758352970
     176   59  2  -0.48200     -4.313763947970     11.273191307300      1.764584043920
     177   59  2  -0.48200     -3.963564592190     11.617310776700      2.748932662030
     178   60  1   0.96400    -18.725031829900    -11.912658058500      6.733168381340
     179   60  2  -0.48200    -18.891702050023    -11.515768799100      7.075513168720
     180   60  2  -0.48200    -18.558361609700    -12.309547318000      6.390823593950
     181   61  1   0.96400      2.677657318180      7.522132859830     -2.020415553860
     182   61  2  -0.48200      2.625308814730      7.389581834650     -2.551631009120
     183   61  2  -0.48200      2.730005821630      7.654683885010     -1.489200098590
     184   62  1   0.96400     -7.561916174550     13.442906153300     -1.909813590750
     185   62  2  -0.48200     -7.392635211950     13.865529732800     -2.218412465810
     186   62  2  -0.48200     -7.731197137150     13.020282573700     -1.601214715680
     187   63  1   0.96400     -8.708113757370      2.518651252190    -16.637677304300
     188   63  2  -0.48200     -9.024519267530      2.173465076980    -16.349174171600
     189   63  2  -0.48200     -8.391708247210      2.863837427410    -16.926180437000
     190   64  1   0.96400     16.985636787900    -18.283046957100     18.290315041400
     191   64  2  -0.48200     16.556592427900    -18.433103588700     18.599998661500
     192   64  2  -0.48200     17.414681147900    -18.132990325600     17.980631421400
     193   65  1   0.96400      1.948274428380      2.297000441100      4.027186675410
     194   65  2  -0.48200      2.350963765430      2.503287135540      3.714477389460
     195   65  2  -0.48200      1.545585091320      2.090713746670      4.339895961370
     196   66  1   0.96400     -0.580480262421     10.939261862200      8.477231838350
     197   66  2  -0.48200     -0.410904568998     10.910207356800      7.954833599540
     198   66  2  -0.48200     -0.750055955843     10.968316367600      8.999630077170
     199   67  1   0.96400      1.258431038960     -6.363054124410     -3.871116867070
     200   67  2  -0.48200      0.902976060111     -6.449181116520     -4.281889187510
     201   67  2  -0.48200      1.613886017800     -6.276927132300     -3.460344546620
     202   68  1   0.96400    -10.326555773500      0.915096703142     -7.860872908860
     203   68  2  -0.48200     -9.952998087640      1.256104903320     -8.076900830130
     204   68  2  -0.48200    -10.700113459300      0.574088502959     -7.644844987580
     205   69  1   0.96400      8.697725744330    -13.732771792900    -17.503781740000
     206   69  2  -0.48200      8.816951176560    -13.815771949200    -16.973313767000
     207   69  2  -0.48200      8.578500312110    -13.649771636500    -18.034249713000
     208   70  1   0.96400     -7.007844270670      4.037398787850     -8.949304228730
     209   70  2  -0.48200     -6.959865305040      3.716765276870     -8.505015842100
     210   70  2  -0.48200     -7.055823236310      4.358032298830     -9.393592615360
     211   71  1   0.96400     -1.119493968330    -14.247972128500     -6.941144283090
     212   71  2  -0.48200     -1.175006548410    -14.701031648300     -6.634296723360
     213   71  2  -0.48200     -1.063981388240    -13.794912608600     -7.247991842820
     214   72  1   0.96400     13.299983554100      1.106305206820     -6.505533567020
     215   72  2  -0.48200     13.183262250500      1.509119085140     -6.861366556950
     216   72  2  -0.48200     13.416704857700      0.703491328504     -6.149700577090
     217   73  1   0.96400     -4.683006325050    -10.999283800000    -14.556795234000
     218   73  2  -0.48200     -4.280366276660    -10.635014252700    -14.644480400100
     219   73  2  -0.48200     -5.085646373440    -11.363553347200    -14.469110067900
     220   74  1   0.96400    -18.746417589300     -0.093080002648    -15.491331454200
     221   74  2  -0.48200    -18.643636318300     -0.594385036990    -15.289764411000
     222   74  2  -0.48200    -18.849198860323      0.408225031694    -15.692898497300
     223   75  1   0.96400     -7.950544225600     12.094763572600     -5.107425772330
     224   75  2  -0.48200     -8.093898668940     11.789452346100     -4.672989863900
     225   75  2  -0.48200     -7.807189782260     12.400074799100     -5.541861680760
     226   76  1   0.96400     18.659053346400     11.415994499400     -1.670793195610
     227   76  2  -0.48200     18.689284891400     11.702850586400     -2.139087589180
     228   76  2  -0.48200     18.628821801400     11.129138412500     -1.202498802030
     229   77  1   0.96400     13.004085371800    -15.926333744000     17.261167255000
     230   77  2  -0.48200     12.754514242700    -16.400504091600     17.385170210800
     231   77  2  -0.48200     13.253656500900    -15.452163396500     17.137164299100
     232   78  1   0.96400    -14.000338440700    -14.841355221800     12.153996325900
     233   78  2  -0.48200    -13.845221815200    -14.713900045200     12.666045161900
     234   78  2  -0.48200    -14.155455066100    -14.968810398300     11.641947489900
     235   79  1   0.96400     17.829574038100     -6.429818181300     10.494699376600
     236   79  2  -0.48200     17.327570763700     -6.210760426060     10.544763458700
     237   79  2  -0.48200     18.331577312600     -6.648875936530     10.444635294600
     238   80  1   0.96400     10.282736489100     -9.794093094090     11.867696984600
     239   80  2  -0.48200     10.497386022200     -9.581879891820     12.327469901100
     240   80  2  -0.48200     10.068086955900    -10.006306296400     11.407924068200
     241   81  1   0.96400      8.802253419390     -3.154136829200    -13.154544863700
     242   81  2  -0.48200      8.664715504560     -3.073083538840    -12.628223967200
     243   81  2  -0.48200      8.939791334220     -3.235190119550    -13.680865760200
     244   82  1   0.96400      3.496804021970     10.943061337800     -6.800818720950
     245   82  2  -0.48200      4.005839339220     11.131139255500     -6.890315886590
     246   82  2  -0.48200      2.987768704720     10.754983420100     -6.711321555320
     247   83  1   0.96400     -6.803605802980     18.473548526700     12.709506845300
     248   83  2  -0.48200     -7.163068061760     18.101196156100     12.895626690000
     249   83  2  -0.48200     -6.444143544210     18.845900897423     12.523387000600
     250   84  1   0.96400     -2.010804438710     -6.161795391270     15.270901074700
     251   84  2  -0.48200     -2.030945663420     -6.651787348550     15.021898639200
     252   84  2  -0.48200     -1.990663214010     -5.671803434000     15.519903510100
     253   85  1   0.96400     -1.497351620260    -10.853759287400      3.760530724970
     254   85  2  -0.48200     -0.970964413566    -10.701152517000      3.806657531000
     255   85  2  -0.48200     -2.023738826960    -11.006366057900      3.714403918930
     256   86  1   0.96400    -14.316503071000    -11.736606986200     16.639276260300
     257   86  2  -0.48200    -14.231494912100    -11.342602168800     17.013487185800
     258   86  2  -0.48200    -14.401511229800    -12.130611803600     16.265065334800
     259   87  1   0.96400      3.817560930860      5.810314686380     10.711143855600
     260   87  2  -0.48200      3.395556673110      6.061678869770     10.958587695200
     261   87  2  -0.48200      4.239565188620      5.558950502990     10.463700016100
     262   88  1   0.96400     15.124908226900      8.463062427660      2.688873450910
     263   88  2  -0.48200     14.654471308400      8.196433398810      2.789362588230
     264   88  2  -0.48200     15.595345145300      8.729691456500      2.588384313590
     265   89  1   0.96400    -12.433406304200     -6.308902058110     -4.130669354100
     266   89  2  -0.48200    -12.868071786900     -6.473159575820     -4.424923302360
     267   89  2  -0.48200    -11.998740821600     -6.144644540390     -3.836415405850
     268   90  1   0.96400     15.054994988300    -11.462272432700      9.987579417090
     269   90  2  -0.48200     14.623767554500    -11.220611531700     10.228707825400
     270   90  2  -0.48200     15.486222422100    -11.703933333700      9.746451008780
     271   91  1   0.96400    -14.425480809400     -4.495114403930     16.110644394000
     272   91  2  -0.48200    -14.481062171100     -3.979952236680     16.295085858100
     273   91  2  -0.48200    -14.369899447800     -5.010276571180     15.926202929900
     274   92  1   0.96400      8.083704867980    -14.305965554800     -8.009502007180
     275   92  2  -0.48200      8.092970550360    -13.818649402600     -7.754674389180
     276   92  2  -0.48200      8.074439185600    -14.793281707100     -8.264329625170
     277   93  1   0.96400    -15.571688893800     -1.568806556870      9.039363750980
     278   93  2  -0.48200    -15.110186843400     -1.380812184970      9.272116782430
     279   93  2  -0.48200    -16.033190944100     -1.756800928760      8.806610719530
     280   94  1   0.96400      9.720775755740     -6.683227191200     -3.769314185170
     281   94  2  -0.48200     10.235441530700     -6.877170147670     -3.767018593270
     282   94  2  -0.48200      9.206109980790     -6.489284234730     -3.771609777070
     283   95  1   0.96400      0.548954690699      2.072633652380     -6.754992239820
     284   95  2  -0.48200      0.870495953683      1.738815260430     -7.051094413730
     285   95  2  -0.48200      0.227413427715      2.406452044330     -6.458890065910
     286   96  1   0.96400     -1.969313289090     12.295940500500    -10.355210405600
     287   96  2  -0.48200     -2.058935682500     12.795159957100    -10.567925616100
     288   96  2  -0.48200     -1.879690895670     11.796721043900    -10.142495195100
     289   97  1   0.96400      8.802235364280      5.807731295650    -14.607754002400
     290   97  2  -0.48200      9.319260363490      5.993346477940    -14.580695652600
     291   97  2  -0.48200      8.285210365070      5.622116113350    -14.634812352300
     292   98  1   0.96400    -13.197068597400     -0.612878180588    -15.143865652200
     293   98  2  -0.48200    -13.616444301200     -0.283402249559    -15.278288975800
     294   98  2  -0.48200    -12.777692893600     -0.942354111616    -15.009442328600
     295   99  1   0.96400     -7.718191716930      8.803023629740     -4.953482259940
     296   99  2  -0.48200     -7.521499141140      9.152850784550     -4.577406479820
     297   99  2  -0.48200     -7.914884292710      8.453196474930     -5.329558040060
     298  100  1   0.96400     -6.273973722480      9.629801007230     -1.357838817490
     299  100  2  -0.48200     -6.652658203890      9.508175228250     -0.977963530816
     300  100  2  -0.48200     -5.895289241080      9.751426786220     -1.737714104170
     301  101  1   0.96400    -14.923491143000     18.498100376700     -2.903683753720
     302  101  2  -0.48200    -15.140100225800     18.728142215600     -3.353862893170
     303  101  2  -0.48200    -14.706882060300     18.268058537700     -2.453504614270
     304  102  1   0.96400     11.022133911600     15.986012443600     -5.652622505560
     305  102  2  -0.48200     11.388693907000     16.110435972300     -6.043330267580
     306  102  2  -0.48200     10.655573916200     15.861588915000     -5.261914743540
     307  103  1   0.96400    -16.152966934400     11.884376946200     -3.283184199630
     308  103  2  -0.48200    -15.744612612300     11.851983549800     -2.916172734480
     309  103  2  -0.48200    -16.561321256400     11.916770342500     -3.650195664780
     310  104  1   0.96400      7.207846421720     15.737210471900      0.053862405603
     311  104  2  -0.48200      6.980878300620     15.237919771800      0.095023902153
     312  104  2  -0.48200      7.434814542810     16.236501172000      0.012700909054
     313  105  1   0.96400    -17.885564273500     13.632456718800     14.187131820900
     314  105  2  -0.48200    -17.392308107700     13.509680381800     13.977073910100
     315  105  2  -0.48200    -18.378820439400     13.755233055800     14.397189731800
     316  106  1   0.96400    -14.854603615500      5.225640752230     -6.825941646560
     317  106  2  -0.48200    -14.801995834000      5.746268066050     -6.995292233890
     318  106  2  -0.48200    -14.907211397100      4.705013438420     -6.656591059220
     319  107  1   0.96400     -7.018668829650     -0.008492133421     15.236611676000
     320  107  2  -0.48200     -6.714369518110     -0.442713198801     15.090481612800
     321  107  2  -0.48200     -7.322968141200      0.425728931959     15.382741739200
     322  108  1   0.96400    -11.919424427100     17.534401395100     12.973517489800
     323  108  2  -0.48200    -12.230307221800     17.169392821400     12.704035340000
     324  108  2  -0.48200    -11.608541632300     17.899409968700     13.242999639600
     325  109  1   0.96400     17.106952771800    -15.620386231400     -5.914595984700
     326  109  2  -0.48200     17.472739955500    -15.598487623900     -5.504449441110
     327  109  2  -0.48200     16.741165588100    -15.642284838800     -6.324742528280
     328  110  1   0.96400     17.293466016300     13.589781668300     -4.602416662620
     329  110  2  -0.48200     17.313414808800     14.136982635800     -4.550714178720
     330  110  2  -0.48200     17.273517223800     13.042580700800     -4.654119146520
     331  111  1   0.96400      6.522830943000    -10.008387216300     13.233819778300
     332  111  2  -0.48200      5.994069756640    -10.068292125600     13.372827007000
     333  111  2  -0.48200      7.051592129370     -9.948482307050     13.094812549600
     334  112  1   0.96400      1.623875765300    -12.376516785200     -0.516962329117
     335  112  2  -0.48200      1.333169886970    -12.796514365400     -0.720903803443
     336  112  2  -0.48200      1.914581643640    -11.956519205000     -0.313020854790
     337  113  1   0.96400     16.195195562600     -4.615054348120      2.020320205820
     338  113  2  -0.48200     16.736092493100     -4.633818638570      2.118189567800
     339  113  2  -0.48200     15.654298632200     -4.596290057670      1.922450843840
     340  114  1   0.96400    -15.050095183900     -0.678608535763     14.752435552200