LAMMPS Atom File

         3000 atoms
         2000 bonds
         1000 angles
           0 dihedrals
           0 impropers

           2 atom types
           1 bond types
           1 angle types

         0.0  41.6396503879 xlo xhi
         0.0  41.6396503879 ylo yhi
         0.0  41.6396503879 zlo zhi

Masses

         1    1.0e-20
         2   14.00670

Atoms

       1    1  1   0.96400    -12.530905118700     13.542700063000      5.033869477260
       2    1  2  -0.48200    -12.488492134000     14.089145155800      4.988055731640
       3    1  2  -0.48200    -12.573318103300     12.996254970200      5.079683222880
       4    2  1   0.96400      7.794316252950     -0.011183898073     -3.294965010670
       5    2  2  -0.48200      7.952715075830      0.001526015313     -2.768421307820
       6    2  2  -0.48200      7.635917430060     -0.023893811460     -3.821508713520
       7    3  1   0.96400    -14.514644678400     17.679071841200     11.793895509200
       8    3  2  -0.48200    -14.880798038900     17.754912170000     11.390559469300
       9    3  2  -0.48200    -14.148491317800     17.603231512400     12.197231549100
      10    4  1   0.96400     12.241476810600    -16.476870628100     -0.329738464930
      11    4  2  -0.48200     12.076925706100    -16.684254895500      0.152355612661
      12    4  2  -0.48200     12.406027915000    -16.269486360600     -0.811832542522
      13    5  1   0.96400     -9.562488572280    -20.304233199700      0.723791288185
      14    5  2  -0.48200     -9.383506216970    -20.133756333600      0.232463541559
      15    5  2  -0.48200     -9.741470927590    -20.474710065900      1.215119034810
      16    6  1   0.96400     19.333697020100      4.683077115170     -4.999685111020
      17    6  2  -0.48200     19.782699255600      4.619789360150     -4.688410870890
      18    6  2  -0.48200     18.884694784600      4.746364870190     -5.310959351150
      19    7  1   0.96400     16.135938248900     -3.552262976860      7.381527852330
      20    7  2  -0.48200     15.871295537300     -3.070190000400      7.373168392970
      21    7  2  -0.48200     16.400580960500     -4.034335953320      7.389887311700
      22    8  1   0.96400      5.877581027460     18.615463757500    -19.925844683300
      23    8  2  -0.48200      6.203070636770     18.237605296500    -19.693940613300
      24    8  2  -0.48200      5.552091418160     18.993322218500    -20.157748753400
      25    9  1   0.96400     14.437079841900     -4.738474533760    -19.848012850900
      26    9  2  -0.48200     14.203179775500     -4.279336645140    -20.040322908300
      27    9  2  -0.48200     14.670979908300     -5.197612422370    -19.655702793400
      28   10  1   0.96400     -2.720452043560     -4.709616142020    -12.587971872800
      29   10  2  -0.48200     -2.741026368390     -4.166057859220    -12.506601790000
      30   10  2  -0.48200     -2.699877718730     -5.253174424810    -12.669341955500
      31   11  1   0.96400     15.846873486400     16.468854672500     17.634030024600
      32   11  2  -0.48200     15.322531523200     16.409030160200     17.788905888900
      33   11  2  -0.48200     16.371215449600     16.528679184800     17.479154160400
      34   12  1   0.96400     13.659364845700     13.569069070400     17.562181643600
      35   12  2  -0.48200     14.001017347600     13.259773160400     17.862364268000
      36   12  2  -0.48200     13.317712343700     13.878364980400     17.261999019200
      37   13  1   0.96400    -15.026041776200     19.864355404900      1.339789885200
      38   13  2  -0.48200    -15.317996124600     20.019886670500      0.900389516709
      39   13  2  -0.48200    -14.734087427800     19.708824139200      1.779190253700
      40   14  1   0.96400    -14.004109409400     -9.390711015460      3.583386236810
      41   14  2  -0.48200    -14.101003002700     -9.107291162510      3.122100188330
      42   14  2  -0.48200    -13.907215816000     -9.674130868410      4.044672285290
      43   15  1   0.96400     -1.743662200460     -2.862228025200     15.076740083400
      44   15  2  -0.48200     -1.989683784300     -3.292411876370     15.315309223300
      45   15  2  -0.48200     -1.497640616620     -2.432044174040     14.838170943600
      46   16  1   0.96400    -16.397228020800     -2.054818135910    -16.265911357700
      47   16  2  -0.48200    -15.897777719700     -2.230064740830    -16.415370463000
      48   16  2  -0.48200    -16.896678322000     -1.879571531000    -16.116452252400
      49   17  1   0.96400     16.716640185900    -19.590131449400      5.508222732870
      50   17  2  -0.48200     16.915244234800    -19.833756497600      5.959557716750
      51   17  2  -0.48200     16.518036137100    -19.346506401200      5.056887748980
      52   18  1   0.96400      1.916946306880     -6.896716791890     11.993315934100
      53   18  2  -0.48200      2.033476105270     -6.835161491880     12.527293228600
      54   18  2  -0.48200      1.800416508490     -6.958272091890     11.459338639500
      55   19  1   0.96400     -6.500203357500    -10.274062846000      6.448451217380
      56   19  2  -0.48200     -6.395111449390    -10.207827960700      6.984239077290
      57   19  2  -0.48200     -6.605295265610    -10.340297731200      5.912663357470
      58   20  1   0.96400      0.406149139939     -9.352329248930    -20.304711871900
      59   20  2  -0.48200     -0.109259416688     -9.405655923240    -20.489130649600
      60   20  2  -0.48200      0.921557696566     -9.299002574610    -20.120293094300
      61   21  1   0.96400    -16.452379037400      1.669361979490    -19.319538857900
      62   21  2  -0.48200    -16.129890303300      1.227303850930    -19.375087281500
      63   21  2  -0.48200    -16.774867771400      2.111420108050    -19.263990434300
      64   22  1   0.96400    -18.949078614500     16.406448374100      0.378691211113
      65   22  2  -0.48200    -18.824112546200     16.071845000200     -0.039548031297
      66   22  2  -0.48200    -19.074044682800     16.741051748100      0.796930453523
      67   23  1   0.96400     10.711571414700     -6.764673609590      6.463188627290
      68   23  2  -0.48200     10.601515988400     -6.240739189470      6.337170665970
      69   23  2  -0.48200     10.821626840900     -7.288608029710      6.589206588620
      70   24  1   0.96400     16.075254399000     -3.330963984050    -16.840918475300
      71   24  2  -0.48200     16.359798743900     -3.752744123770    -17.049810862700
      72   24  2  -0.48200     15.790710054000     -2.909183844320    -16.632026088000
      73   25  1   0.96400    -18.536363390300      5.335128827080    -18.122075224900
      74   25  2  -0.48200    -18.149096216100      5.570070651610    -17.810103311300
      75   25  2  -0.48200    -18.923630564500      5.100187002560    -18.434047138500
      76   26  1   0.96400     16.686107563800     20.555706683900     12.542344418800
      77   26  2  -0.48200     16.880418250600     20.382086028700     12.057989977200
      78   26  2  -0.48200     16.491796877000     20.729327339100     13.026698860300
      79   27  1   0.96400     10.311674460000    -19.440638195900    -19.714108059200
      80   27  2  -0.48200     10.696383415900    -19.119468578600    -19.940711448700
      81   27  2  -0.48200      9.926965504160    -19.761807813300    -19.487504669700
      82   28  1   0.96400      4.909334666600     -7.940111412040      7.685808070570
      83   28  2  -0.48200      4.380503808960     -7.801693135600      7.625159041230
      84   28  2  -0.48200      5.438165524230     -8.078529688470      7.746457099910
      85   29  1   0.96400     11.923068351900    -17.303454903600    -17.035345350100
      86   29  2  -0.48200     12.318604114100    -16.925052826900    -16.981835264800
      87   29  2  -0.48200     11.527532589700    -17.681856980200    -17.088855435400
      88   30  1   0.96400    -12.013625460900    -15.621965622100      4.802871636000
      89   30  2  -0.48200    -11.728474063200    -15.863164032000      5.206619091050
      90   30  2  -0.48200    -12.298776858600    -15.380767212200      4.399124180960
      91   31  1   0.96400     -6.126636696900    -10.053765837000     16.260676900600
      92   31  2  -0.48200     -5.962229829120    -10.316359403700     15.806237685200
      93   31  2  -0.48200     -6.291043564680     -9.791172270370     16.715116116100
      94   32  1   0.96400    -20.518113018500    -15.869543544000    -17.051139082600
      95   32  2  -0.48200    -19.999090956800    -15.792348084600    -16.886345391700
      96   32  2  -0.48200    -21.037135080159    -15.946739003400    -17.215932773400
      97   33  1   0.96400     -2.583462727610     17.980699633800     19.276060975100
      98   33  2  -0.48200     -2.934939075400     18.399982170500     19.332332916200
      99   33  2  -0.48200     -2.231986379830     17.561417097100     19.219789033900
     100   34  1   0.96400      0.554350716718      1.495161517330     -3.428702151130
     101   34  2  -0.48200      0.562933619736      1.141225648400     -3.007803428800
     102   34  2  -0.48200      0.545767813700      1.849097386270     -3.849600873460
     103   35  1   0.96400    -15.687811351800     16.789523270800     -3.551997652440
     104   35  2  -0.48200    -15.726687752800     16.473130385800     -4.000198687420
     105   35  2  -0.48200    -15.648934950800     17.105916155800     -3.103796617450
     106   36  1   0.96400     16.169463028700     14.374633882000      0.982377954838
     107   36  2  -0.48200     16.454890872800     13.908750595700      1.045494588050
     108   36  2  -0.48200     15.884035184600     14.840517168200      0.919261321623
     109   37  1   0.96400    -13.253853627700     -9.467610359760    -17.100955500400
     110   37  2  -0.48200    -13.803033624600     -9.480161808660    -17.128228052900
     111   37  2  -0.48200    -12.704673630700     -9.455058910860    -17.073682947900
     112   38  1   0.96400     -2.336862229860     15.138239569600     -7.829228570660
     113   38  2  -0.48200     -2.560122714500     15.640698906600     -7.815467367030
     114   38  2  -0.48200     -2.113601745220     14.635780232700     -7.842989774280
     115   39  1   0.96400     11.223931538000     11.780484791500      1.117558717250
     116   39  2  -0.48200     10.870723846200     11.525314269900      0.781951310541
     117   39  2  -0.48200     11.577139229700     12.035655313000      1.453166123960
     118   40  1   0.96400     -7.017559011200    -10.295454976900     -6.669245858930
     119   40  2  -0.48200     -7.155377121170    -10.521131763500     -6.186984356720
     120   40  2  -0.48200     -6.879740901220    -10.069778190200     -7.151507361150
     121   41  1   0.96400     -0.223149651204     -1.773694933750    -14.552571287200
     122   41  2  -0.48200     -0.173215741881     -2.307234512180    -14.428707963600
     123   41  2  -0.48200     -0.273083560526     -1.240155355320    -14.676434610900
     124   42  1   0.96400    -16.252807761300     16.302624222600     -7.676048836970
     125   42  2  -0.48200    -16.781075357300     16.253771429600     -7.821123823350
     126   42  2  -0.48200    -15.724540165300     16.351477015600     -7.530973850590
     127   43  1   0.96400     19.567511034100      4.465512458530     19.513830484200
     128   43  2  -0.48200     19.817397685700      4.703993916500     19.085831353800
     129   43  2  -0.48200     19.317624382500      4.227031000550     19.941829614500
     130   44  1   0.96400      1.920581423070    -14.001240645100     -5.636983120470
     131   44  2  -0.48200      1.846506090820    -13.462510429000     -5.719339658840
     132   44  2  -0.48200      1.994656755330    -14.539970861200     -5.554626582090
     133   45  1   0.96400     -1.098958406720      2.975177169080     -0.125740001932
     134   45  2  -0.48200     -1.499366153840      3.229656056100      0.152493950184
     135   45  2  -0.48200     -0.698550659610      2.720698282060     -0.403973954047
     136   46  1   0.96400     -1.976019390650    -11.422123372000     -5.404981015360
     137   46  2  -0.48200     -2.376976125440    -11.699834722800     -5.150795841860
     138   46  2  -0.48200     -1.575062655850    -11.144412021100     -5.659166188870
     139   47  1   0.96400     -9.115156044110      4.308772051640    -10.043687407900
     140   47  2  -0.48200     -9.137482202900      4.393908752960    -10.586599265100
     141   47  2  -0.48200     -9.092829885330      4.223635350330     -9.500775550660
     142   48  1   0.96400     -5.982772550580     11.325920447900      3.736229396010
     143   48  2  -0.48200     -5.772895699700     11.172163115700      4.220801774780
     144   48  2  -0.48200     -6.192649401470     11.479677780100      3.251657017240
     145   49  1   0.96400     18.101068628200    -13.121079009700      5.558957816530
     146   49  2  -0.48200     17.919667343200    -13.314148537100      5.076964319310
     147   49  2  -0.48200     18.282469913200    -12.928009482200      6.040951313760
     148   50  1   0.96400      3.262030500740     11.227824170300     -3.258572685270
     149   50  2  -0.48200      3.622520480930     11.090804174900     -3.650711047400
     150   50  2  -0.48200      2.901540520560     11.364844165600     -2.866434323130
     151   51  1   0.96400     -7.130955344390      4.809706702350     18.805834732700
     152   51  2  -0.48200     -7.244329568200      4.540557774750     18.339782010200
     153   51  2  -0.48200     -7.017581120590      5.078855629940     19.271887455200
     154   52  1   0.96400     18.113277280000     20.471435467300     19.629302403800
     155   52  2  -0.48200     18.572323803900     20.579719729400     19.912234917700
     156   52  2  -0.48200     17.654230756000     20.363151205200     19.346369889900
     157   53  1   0.96400      1.336740858100     -1.802372334980      6.820043046580
     158   53  2  -0.48200      0.845362026191     -1.749020654720      6.578795369350
     159   53  2  -0.48200      1.828119690010     -1.855724015240      7.061290723800
     160   54  1   0.96400     -0.813069852310     17.403600018100     14.867481880700
     161   54  2  -0.48200     -1.185897956280     17.382207738500     15.271265950800
     162   54  2  -0.48200     -0.440241748334     17.424992297700     14.463697810600
     163   55  1   0.96400      3.114256546350     -4.947857854160     -3.616334382760
     164   55  2  -0.48200      3.007915961220     -4.705693215930     -3.134102106830
     165   55  2  -0.48200      3.220597131470     -5.190022492390     -4.098566658690
     166   56  1   0.96400    -10.134575963500     -5.298642578620     -6.284183897070
     167   56  2  -0.48200    -10.219318556700     -5.314399456950     -5.740980055330
     168   56  2  -0.48200    -10.049833370200     -5.282885700290     -6.827387738810
     169   57  1   0.96400     -9.385639248480      4.652946200310    -14.483624895400
     170   57  2  -0.48200     -8.908197052800      4.619583790180    -14.754615484500
     171   57  2  -0.48200     -9.863081444160      4.686308610430    -14.212634306300
     172   58  1   0.96400     -7.217475632290    -14.915232174700    -13.797138611300
     173   58  2  -0.48200     -6.967514127100    -14.637403290300    -14.200661048000
     174   58  2  -0.48200     -7.467437137490    -15.193061059200    -13.393616174600
     175   59  1   0.96400     18.802801972400     -2.222960724060    -18.903580867800
     176   59  2  -0.48200     18.276274706000     -2.370937630110    -18.961648699100
     177   59  2  -0.48200     19.329329238800     -2.074983818010    -18.845513036400
     178   60  1   0.96400    -13.993493837100      5.295920840270     -6.692741869620
     179   60  2  -0.48200    -13.806196025400      5.813023708600     -6.697656470570
     180   60  2  -0.48200    -14.180791648800      4.778817971940     -6.687827268680
     181   61  1   0.96400    -20.325974277800    -15.334847049100     19.884066918300
     182   61  2  -0.48200    -20.564680378900    -15.631530508700     19.487206335600
     183   61  2  -0.48200    -20.087268176700    -15.038163589500     20.280927500900
     184   62  1   0.96400    -10.153375284800    -18.880505933000    -14.419612295200
     185   62  2  -0.48200    -10.680739247400    -19.022270565200    -14.485110691900
     186   62  2  -0.48200     -9.626011322150    -18.738741300700    -14.354113898500
     187   63  1   0.96400    -14.401908237700    -18.135510976800     14.363543454700
     188   63  2  -0.48200    -13.896930458500    -18.260832089200     14.185240170200
     189   63  2  -0.48200    -14.906886017000    -18.010189864400     14.541846739200
     190   64  1   0.96400     12.479475484200     -8.538114567200     16.687514432500
     191   64  2  -0.48200     12.288376435900     -8.228579047350     16.274999080500
     192   64  2  -0.48200     12.670574532600     -8.847650087040     17.100029784500
     193   65  1   0.96400      5.545154316720     10.954754027200     -8.653417860390
     194   65  2  -0.48200      5.405970712080     11.258033132500     -9.090624571750
     195   65  2  -0.48200      5.684337921350     10.651474921800     -8.216211149030
     196   66  1   0.96400     20.505704984100      1.227763417950    -19.170550816400
     197   66  2  -0.48200     20.771286506700      0.973705407391    -18.761379724900
     198   66  2  -0.48200     20.240123461600      1.481821428510    -19.579721907900
     199   67  1   0.96400     -9.526487341220     19.637570126400     13.353577093200
     200   67  2  -0.48200     -9.977693447570     19.386967027500     13.163547789100
     201   67  2  -0.48200     -9.075281234870     19.888173225200     13.543606397400
     202   68  1   0.96400    -11.927139516000      1.203291902450      9.447646461200
     203   68  2  -0.48200    -11.705225138300      1.684565066250      9.300574537380
     204   68  2  -0.48200    -12.149053893700      0.722018738646      9.594718385030
     205   69  1   0.96400     13.670661094800      6.614348901820      3.724846552310
     206   69  2  -0.48200     13.144480369300      6.454251792130      3.723185365640
     207   69  2  -0.48200     14.196841820300      6.774446011520      3.726507738990
     208   70  1   0.96400     17.281841313800     -9.644050506420     14.929294802600
     209   70  2  -0.48200     16.939529093700     -9.237725486710     15.071500014700
     210   70  2  -0.48200     17.624153533900    -10.050375526100     14.787089590600
     211   71  1   0.96400    -12.993868835900     -8.782286814600     18.353770264800
     212   71  2  -0.48200    -13.068486695400     -8.975676119730     17.844326694200
     213   71  2  -0.48200    -12.919250976300     -8.588897509480     18.863213835500
     214   72  1   0.96400    -18.344786114500     -5.299275040960    -18.930517375100
     215   72  2  -0.48200    -18.732056716300     -5.264973114940    -19.319548040900
     216   72  2  -0.48200    -17.957515512800     -5.333576966990    -18.541486709300
     217   73  1   0.96400     18.984006708500     -3.009729428570     10.533773743100
     218   73  2  -0.48200     18.867020266600     -2.556852627100     10.823112256000
     219   73  2  -0.48200     19.100993150500     -3.462606230050     10.244435230100
     220   74  1   0.96400    -17.108161860100     19.608087372000      8.767966267430
     221   74  2  -0.48200    -17.290344882200     20.125932180600      8.801820376700
     222   74  2  -0.48200    -16.925978838100     19.090242563500      8.734112158150
     223   75  1   0.96400     12.459790687100    -14.479784993400     -4.012485874690
     224   75  2  -0.48200     12.216775026100    -14.078172761600     -3.725865910720
     225   75  2  -0.48200     12.702806348100    -14.881397225300     -4.299105838650
     226   76  1   0.96400      0.053718605786      7.902165384170    -10.797314441200
     227   76  2  -0.48200     -0.043403641744      7.884300916930    -11.338376480000
     228   76  2  -0.48200      0.150840853316      7.920029851410    -10.256252402400
     229   77  1   0.96400      9.561433943620      6.325306123110    -15.553889186700
     230   77  2  -0.48200      9.289884443270      6.745902375410    -15.781616351100
     231   77  2  -0.48200      9.832983443970      5.904709870810    -15.326162022300
     232   78  1   0.96400     -8.900553727620      3.848515998820     -2.493606844430
     233   78  2  -0.48200     -8.689979281570      4.258426199510     -2.793826813870
     234   78  2  -0.48200     -9.111128173660      3.438605798140     -2.193386875000
     235   79  1   0.96400     -5.000784843380     16.944900401200      4.068187770960
     236   79  2  -0.48200     -4.704898255990     17.105990129400      3.633445057560
     237   79  2  -0.48200     -5.296671430770     16.783810672900      4.502930484370
     238   80  1   0.96400    -15.139406975200    -16.305919809700     -4.939097331930
     239   80  2  -0.48200    -15.680039965500    -16.340465671300     -5.034084453190
     240   80  2  -0.48200    -14.598773984900    -16.271373948200     -4.844110210670
     241   81  1   0.96400     13.753544604000     13.975214056400     -8.992457705680
     242   81  2  -0.48200     14.110585843200     14.392448127000     -9.023072797910
     243   81  2  -0.48200     13.396503364700     13.557979985900     -8.961842613460
     244   82  1   0.96400    -19.740236247900     13.789830433600      8.137174584420
     245   82  2  -0.48200    -19.841957789600     13.387532333100      7.776191252040
     246   82  2  -0.48200    -19.638514706300     14.192128534200      8.498157916790
     247   83  1   0.96400     -8.963609839360    -13.992120610800    -10.901036531700
     248   83  2  -0.48200     -9.453366785910    -14.227473480800    -10.986166784200
     249   83  2  -0.48200     -8.473852892810    -13.756767740800    -10.815906279200
     250   84  1   0.96400      9.794668957720     18.085967333500     -2.013320943310
     251   84  2  -0.48200      9.616830308620     18.242524498700     -2.509670889310
     252   84  2  -0.48200      9.972507606820     17.929410168200     -1.516970997320
     253   85  1   0.96400    -13.582567161200     15.070519558000     14.117635020800
     254   85  2  -0.48200    -13.650452635000     15.452384853300     14.507597145500
     255   85  2  -0.48200    -13.514681687500     14.688654262700     13.727672896200
     256   86  1   0.96400    -16.185907165900      7.259528577970     -8.888788455450
     257   86  2  -0.48200    -16.647760447400      6.968428831720     -8.955515392180
     258   86  2  -0.48200    -15.724053884400      7.550628324230     -8.822061518730
     259   87  1   0.96400    -11.471286138300     -2.530511663530     15.467530299900
     260   87  2  -0.48200    -11.128297935200     -2.571970522910     15.039581406400
     261   87  2  -0.48200    -11.814274341500     -2.489052804150     15.895479193500
     262   88  1   0.96400    -20.133988948500     20.319080292000     18.064000690700
     263   88  2  -0.48200    -20.348454830700     20.467959966100     17.579914719000
     264   88  2  -0.48200    -19.919523066400     20.170200617900     18.548086662500
     265   89  1   0.96400     18.804083193300     13.926147697300    -10.021918152600
     266   89  2  -0.48200     18.973302541400     13.699410458400    -10.493569545700
     267   89  2  -0.48200     18.634863845100     14.152884936300     -9.550266759410
     268   90  1   0.96400     11.180840079600    -12.234671184700    -19.793201809400
     269   90  2  -0.48200     10.656387673300    -12.081991483500    -19.857533624100
     270   90  2  -0.48200     11.705292485900    -12.387350886000    -19.728869994800
     271   91  1   0.96400     16.229789373500     -0.007454935304      6.231121097620
     272   91  2  -0.48200     15.853499048900     -0.356560797891      6.428682957040
     273   91  2  -0.48200     16.606079698100      0.341650927283      6.033559238200
     274   92  1   0.96400    -14.818826849900     -3.204561643650     16.537725601300
     275   92  2  -0.48200    -14.713846222300     -3.386086283000     17.046181964300
     276   92  2  -0.48200    -14.923807477500     -3.023037004300     16.029269238200
     277   93  1   0.96400     -2.782452415610      6.538956967210     -8.978346259300
     278   93  2  -0.48200     -2.718612638940      6.379766110760     -8.455773054730
     279   93  2  -0.48200     -2.846292192280      6.698147823660     -9.500919463880
     280   94  1   0.96400      6.213784478980     -0.399601144286      9.139868585290
     281   94  2  -0.48200      6.135975197180     -0.941657836245      9.191057044610
     282   94  2  -0.48200      6.291593760780      0.142455547674      9.088680125970
     283   95  1   0.96400    -19.868416479500     -2.446112574300     -6.257048466120
     284   95  2  -0.48200    -20.204598662000     -2.325588329400     -5.838771707850
     285   95  2  -0.48200    -19.532234296900     -2.566636819210     -6.675325224390
     286   96  1   0.96400      9.692440331690     -3.101107049820     13.542442952000
     287   96  2  -0.48200     10.000645727300     -3.398191595620     13.887769184400
     288   96  2  -0.48200      9.384234936120     -2.804022504020     13.197116719600
     289   97  1   0.96400    -13.490258473600    -15.482258793400     17.042445781100
     290   97  2  -0.48200    -13.560919715000    -15.924300830500     16.722905758000
     291   97  2  -0.48200    -13.419597232200    -15.040216756300     17.361985804300
     292   98  1   0.96400     11.999078802500      2.128832522060      4.944530315890
     293   98  2  -0.48200     12.073180354800      1.657143566900      5.217511065230
     294   98  2  -0.48200     11.924977250100      2.600521477230      4.671549566550
     295   99  1   0.96400     -4.875639769140     20.396329554800      5.004652670950
     296   99  2  -0.48200     -5.019676890580     20.902233362559      4.843983305750
     297   99  2  -0.48200     -4.731602647700     19.890425747000      5.165322036160
     298  100  1   0.96400     -9.661818225290    -12.349614869400     15.244033105700
     299  100  2  -0.48200    -10.054560253100    -12.155215070900     15.576391974800
     300  100  2  -0.48200     -9.269076197460    -12.544014668000     14.911674236500
     301  101  1   0.96400     -4.237091939900      9.774996767800      0.607026023433
     302  101  2  -0.48200     -4.099727865020      9.266788338450      0.447792536796
     303  101  2  -0.48200     -4.374456014790     10.283205197200      0.766259510069
     304  102  1   0.96400    -10.328192658100      8.582860883480    -14.312670413300
     305  102  2  -0.48200    -10.465971783300      9.063417366990    -14.083361933700
     306  102  2  -0.48200    -10.190413532900      8.102304399980    -14.541978892900
     307  103  1   0.96400      3.203235731800      4.269134596530    -20.426772443600
     308  103  2  -0.48200      2.777303874080      4.129529218300    -20.108036830700
     309  103  2  -0.48200      3.629167589520      4.408739974750    -20.745508056500
     310  104  1   0.96400     -4.968090217340     -3.113855628810    -20.669286098900
     311  104  2  -0.48200     -4.551757267600     -3.324949517480    -20.960157625759
     312  104  2  -0.48200     -5.384423167090     -2.902761740130    -20.378414572100
     313  105  1   0.96400    -11.519347282100     -6.210161058770    -14.666401537300
     314  105  2  -0.48200    -11.348370396400     -5.690851322570    -14.726270581400
     315  105  2  -0.48200    -11.690324167800     -6.729470794960    -14.606532493200
     316  106  1   0.96400      3.193351846320    -12.241431030400     -9.473860304100
     317  106  2  -0.48200      2.905829029090    -12.697106431100     -9.363449440320
     318  106  2  -0.48200      3.480874663540    -11.785755629800     -9.584271167870
     319  107  1   0.96400     11.402731993700     -2.590208961050      9.430629939150
     320  107  2  -0.48200     11.733673239600     -2.220686492790      9.193077761290
     321  107  2  -0.48200     11.071790747800     -2.959731429310      9.668182117010
     322  108  1   0.96400    -17.426624113900    -15.973616820900    -12.737454053300
     323  108  2  -0.48200    -17.542042202800    -16.301694071000    -12.311374268800
     324  108  2  -0.48200    -17.311206024900    -15.645539570800    -13.163533837700
     325  109  1   0.96400    -10.396477226900     -0.231029786549      1.500473711120
     326  109  2  -0.48200    -10.800260223400     -0.404933174662      1.169993903340
     327  109  2  -0.48200     -9.992694230390     -0.057126398435      1.830953518900
     328  110  1   0.96400     17.766257278200     -4.296336504080     -8.292340072550
     329  110  2  -0.48200     17.546227630300     -4.548628053010     -7.855950420530
     330  110  2  -0.48200     17.986286926100     -4.044044955140     -8.728729724570
     331  111  1   0.96400     -1.582421346900     17.825403084700      3.559032793660
     332  111  2  -0.48200     -1.459277101950     18.224185698300      3.200831841650
     333  111  2  -0.48200     -1.705565591850     17.426620471100      3.917233745680
     334  112  1   0.96400    -18.495980872200    -18.687110482300     16.024602224300
     335  112  2  -0.48200    -18.443074394900    -18.263906962600     16.371876878700
     336  112  2  -0.48200    -18.548887349600    -19.110314002100     15.677327570000
     337  113  1   0.96400     -9.833017279220      0.600582501539     12.610068270400
     338  113  2  -0.48200     -9.636603555960      1.042735742580     12.348491970300
     339  113  2  -0.48200    -10.029431002500      0.158429260495     12.871644570400
     340  114  1   0.96400    -14.756904564100      7.997122736220    -13.670100362100