LAMMPS Atom File

         3000 atoms
         2000 bonds
         1000 angles
           0 dihedrals
           0 impropers

           2 atom types
           1 bond types
           1 angle types

         0.0  39.9211322831 xlo xhi
         0.0  39.9211322831 ylo yhi
         0.0  39.9211322831 zlo zhi

Masses

         1    1.0e-20
         2   14.00670

Atoms

       1    1  1   0.96400    -14.639057289100     13.188832751500      3.846942347180
       2    1  2  -0.48200    -14.662178619600     12.853565013000      3.411556371740
       3    1  2  -0.48200    -14.615935958600     13.524100489900      4.282328322610
       4    2  1   0.96400      7.805225396750     -1.266956026220     -2.081747319600
       5    2  2  -0.48200      8.321128426480     -1.398518521430     -2.219716061630
       6    2  2  -0.48200      7.289322367030     -1.135393531010     -1.943778577580
       7    3  1   0.96400     -9.950353684890    -18.124462528500     14.341930585900
       8    3  2  -0.48200     -9.460179283770    -17.901372291900     14.230307099200
       9    3  2  -0.48200    -10.440528086000    -18.347552765200     14.453554072600
      10    4  1   0.96400     12.619195889000    -14.453137311100     -0.862332472605
      11    4  2  -0.48200     12.487552222200    -14.304646356300     -1.375285083800
      12    4  2  -0.48200     12.750839555800    -14.601628265900     -0.349379861408
      13    5  1   0.96400    -10.292640071500    -19.426396886900     -1.807529809170
      14    5  2  -0.48200    -10.743397285800    -19.111254767100     -1.809367764000
      15    5  2  -0.48200     -9.841882857160    -19.741539006700     -1.805691854340
      16    6  1   0.96400     -4.834519041400     17.282530757600    -17.743876944400
      17    6  2  -0.48200     -4.721447261580     16.800110300500    -17.982592832300
      18    6  2  -0.48200     -4.947590821230     17.764951214700    -17.505161056400
      19    7  1   0.96400     19.617944952800      4.846139848330     -1.709626701650
      20    7  2  -0.48200     19.132145009700      4.890570879100     -1.455610366130
      21    7  2  -0.48200     20.103744896028      4.801708817570     -1.963643037160
      22    8  1   0.96400     15.508063521000     -5.157863784250      8.162303429150
      23    8  2  -0.48200     15.763095253400     -5.431376605950      8.565601770130
      24    8  2  -0.48200     15.253031788600     -4.884350962550      7.759005088160
      25    9  1   0.96400      5.478563934070     14.609137317000    -17.404598949600
      26    9  2  -0.48200      5.152027188700     15.049970725700    -17.365360452600
      27    9  2  -0.48200      5.805100679450     14.168303908200    -17.443837446600
      28   10  1   0.96400     11.898816932200     -4.932744201700    -18.823129602600
      29   10  2  -0.48200     11.423132581500     -5.184633600990    -18.936161142600
      30   10  2  -0.48200     12.374501282900     -4.680854802410    -18.710098062700
      31   11  1   0.96400     -5.243280330960     -7.813582700610    -11.561122915500
      32   11  2  -0.48200     -5.568913874980     -7.906647767370    -11.994483837100
      33   11  2  -0.48200     -4.917646786950     -7.720517633840    -11.127761993900
      34   12  1   0.96400     -9.371784255720     -3.131959440230      5.685672527780
      35   12  2  -0.48200     -9.440242161020     -2.913257626880      6.185655559530
      36   12  2  -0.48200     -9.303326350420     -3.350661253570      5.185689496020
      37   13  1   0.96400    -11.482516521500    -14.130743042000     13.322878466000
      38   13  2  -0.48200    -11.927143436000    -13.879429877500     13.526958353000
      39   13  2  -0.48200    -11.037889607000    -14.382056206400     13.118798579100
      40   14  1   0.96400    -12.528933111200     -7.708124184320     11.708800686900
      41   14  2  -0.48200    -12.382225653000     -7.180714645980     11.655733742400
      42   14  2  -0.48200    -12.675640569300     -8.235533722650     11.761867631400
      43   15  1   0.96400     14.139062829000     16.973905196800    -19.688300429400
      44   15  2  -0.48200     13.839996297700     16.535616016000    -19.543518511300
      45   15  2  -0.48200     14.438129360400     17.412194377600    -19.833082347600
      46   16  1   0.96400     11.070433176900     12.092933901900     14.204009329500
      47   16  2  -0.48200     11.453707209500     12.140952154500     13.812479939400
      48   16  2  -0.48200     10.687159144300     12.044915649300     14.595538719700
      49   17  1   0.96400    -16.755621230700    -19.010668079900      2.983109564160
      50   17  2  -0.48200    -16.529942420600    -18.610776688100      2.680362228170
      51   17  2  -0.48200    -16.981300040800    -19.410559471600      3.285856900150
      52   18  1   0.96400    -11.132209808800     -6.831451781760      7.357298997690
      53   18  2  -0.48200    -10.741189049700     -6.470542987160      7.496394676750
      54   18  2  -0.48200    -11.523230567900     -7.192360576360      7.218203318630
      55   19  1   0.96400      1.682954460550      0.131868174334     16.304523253800
      56   19  2  -0.48200      1.320935930290     -0.266762744329     16.416487419700
      57   19  2  -0.48200      2.044972990810      0.530499092997     16.192559088000
      58   20  1   0.96400    -10.091927248700     -1.805350226490    -18.054969124800
      59   20  2  -0.48200     -9.696826006480     -2.132767711930    -17.856997413200
      60   20  2  -0.48200    -10.487028491000     -1.477932741050    -18.252940836400
      61   21  1   0.96400     15.984412375800    -12.881549239400      8.513553891770
      62   21  2  -0.48200     16.507076122800    -13.019767457500      8.412468127460
      63   21  2  -0.48200     15.461748628800    -12.743331021300      8.614639656080
      64   22  1   0.96400      2.761713474980     -7.729943335120     14.639005255900
      65   22  2  -0.48200      2.984052560920     -7.998583237470     14.213684278600
      66   22  2  -0.48200      2.539374389040     -7.461303432780     15.064326233200
      67   23  1   0.96400     -5.169335799170    -11.655528829500      4.836204395570
      68   23  2  -0.48200     -5.606374856210    -11.967716489400      4.954676871910
      69   23  2  -0.48200     -4.732296742130    -11.343341169700      4.717731919230
      70   24  1   0.96400     -3.090480277800     -6.203496640910     19.100343730700
      71   24  2  -0.48200     -3.172577994580     -5.683631263590     19.260030782000
      72   24  2  -0.48200     -3.008382561020     -6.723362018220     18.940656679300
      73   25  1   0.96400    -16.269942930600     -0.805029905308    -14.432883072900
      74   25  2  -0.48200    -15.886149369400     -1.007720101100    -14.770698387600
      75   25  2  -0.48200    -16.653736491900     -0.602339709518    -14.095067758200
      76   26  1   0.96400    -12.464884194000     15.473206400500     -0.915827402418
      77   26  2  -0.48200    -12.770395184100     15.422408941700     -1.370341046980
      78   26  2  -0.48200    -12.159373203900     15.524003859300     -0.461313757851
      79   27  1   0.96400     -6.368369257720    -12.977909353900     10.851855268400
      80   27  2  -0.48200     -6.765060584200    -13.358353779600     10.831904566600
      81   27  2  -0.48200     -5.971677931240    -12.597464928300     10.871805970200
      82   28  1   0.96400     10.845668944500     -4.915730315270     12.403104012700
      83   28  2  -0.48200     10.781235462100     -5.199867730380     11.936612581200
      84   28  2  -0.48200     10.910102426900     -4.631592900160     12.869595444200
      85   29  1   0.96400     15.605625706100    -15.113799021500     -9.272646339140
      86   29  2  -0.48200     16.096049821400    -15.197743864700     -9.507033733200
      87   29  2  -0.48200     15.115201590900    -15.029854178300     -9.038258945090
      88   30  1   0.96400    -10.990067135200      6.204573893300      4.121463492070
      89   30  2  -0.48200    -10.727372883100      6.468792078110      4.526037936100
      90   30  2  -0.48200    -11.252761387200      5.940355708490      3.716889048050
      91   31  1   0.96400     18.417943636900     -6.961111455100    -14.265458415800
      92   31  2  -0.48200     18.649978710300     -7.350259806410    -13.953651928700
      93   31  2  -0.48200     18.185908563600     -6.571963103780    -14.577264902900
      94   32  1   0.96400    -17.897378685500      3.685004907670    -16.745389893800
      95   32  2  -0.48200    -17.511517415800      3.372892999510    -16.508330328800
      96   32  2  -0.48200    -18.283239955200      3.997116815830    -16.982449458700
      97   33  1   0.96400     18.193454040400     19.167636277000      9.190705060830
      98   33  2  -0.48200     17.747041196200     19.166624285900      9.511975271820
      99   33  2  -0.48200     18.639866884500     19.168648268100      8.869434849840
     100   34  1   0.96400    -13.678177143000     -3.393662906900     11.992637598000
     101   34  2  -0.48200    -13.728691251300     -3.443733477160     12.538019356800
     102   34  2  -0.48200    -13.627663034800     -3.343592336630     11.447255839100
     103   35  1   0.96400     13.359267067900     19.779828773800     17.130869804600
     104   35  2  -0.48200     13.183057898900     19.501504697800     17.571308265100
     105   35  2  -0.48200     13.535476236800     20.058152849828     16.690431344100
     106   36  1   0.96400      6.059627071910     -6.543855648040      8.336872878240
     107   36  2  -0.48200      6.583464204880     -6.388113258420      8.398832269760
     108   36  2  -0.48200      5.535789938940     -6.699598037670      8.274913486720
     109   37  1   0.96400     12.976319123400    -19.219990656500    -19.783725430900
     110   37  2  -0.48200     13.511920341900    -19.342210618400    -19.757388845300
     111   37  2  -0.48200     12.440717905000    -19.097770694600    -19.810062016500
     112   38  1   0.96400    -10.136398070200    -13.587094525700      9.530962369460
     113   38  2  -0.48200    -10.266930824600    -13.519678142400      9.000947057140
     114   38  2  -0.48200    -10.005865315800    -13.654510909000     10.060977681800
     115   39  1   0.96400     -0.505622890228     -7.666463369690     15.395450327800
     116   39  2  -0.48200     -0.099841447802     -7.801485687460     15.049602970300
     117   39  2  -0.48200     -0.911404332653     -7.531441051920     15.741297685300
     118   40  1   0.96400     17.145097602200    -12.197831960900    -10.767567775800
     119   40  2  -0.48200     17.243905365700    -11.965304419200    -11.256104333500
     120   40  2  -0.48200     17.046289838800    -12.430359502600    -10.279031218100
     121   41  1   0.96400     -5.346173794080    -19.900485122300     17.463589551800
     122   41  2  -0.48200     -5.276895554010    -20.418143450428     17.291164551200
     123   41  2  -0.48200     -5.415452034140    -19.382826794300     17.636014552400
     124   42  1   0.96400      5.101404866510      0.356884191427     -5.676417582900
     125   42  2  -0.48200      4.858153942250      0.394234009333     -6.168285429940
     126   42  2  -0.48200      5.344655790780      0.319534373521     -5.184549735870
     127   43  1   0.96400    -19.789503738200     -4.629951233370    -16.383356197600
     128   43  2  -0.48200    -19.438105628400     -4.207187786160    -16.366314012500
     129   43  2  -0.48200    -20.140901848128     -5.052714680580    -16.400398382800
     130   44  1   0.96400    -13.320532518900     14.009042683600     -4.513729331650
     131   44  2  -0.48200    -13.172121954500     13.719207770400     -4.070479935170
     132   44  2  -0.48200    -13.468943083300     14.298877596800     -4.956978728120
     133   45  1   0.96400     14.744864032200     11.288004315700      1.206695842690
     134   45  2  -0.48200     14.684477737000     11.135543927100      0.681710771234
     135   45  2  -0.48200     14.805250327400     11.440464704300      1.731680914140
     136   46  1   0.96400    -12.935394297000     -8.896015020900     19.190005514500
     137   46  2  -0.48200    -12.672965689600     -9.345727977610     19.367176287000
     138   46  2  -0.48200    -13.197822904300     -8.446302064200     19.012834742000
     139   47  1   0.96400     -2.035200732820     16.858926035200     -6.876300027580
     140   47  2  -0.48200     -2.415741534900     16.972048951000     -6.495653335930
     141   47  2  -0.48200     -1.654659930730     16.745803119400     -7.256946719240
     142   48  1   0.96400     13.226754820900     13.505787514300      4.421315295320
     143   48  2  -0.48200     12.785721603800     13.292494934500      4.671307248850
     144   48  2  -0.48200     13.667788038000     13.719080094000      4.171323341790
     145   49  1   0.96400     -7.623811014760     -5.363737464170     -6.810399728870
     146   49  2  -0.48200     -7.718046727290     -5.889018679820     -6.677361106760
     147   49  2  -0.48200     -7.529575302230     -4.838456248520     -6.943438350980
     148   50  1   0.96400      1.229114737770      0.780004540531    -15.331952487000
     149   50  2  -0.48200      0.721240448741      0.852460464162    -15.133675292900
     150   50  2  -0.48200      1.736989026810      0.707548616900    -15.530229681000
     151   51  1   0.96400    -14.271899433200     17.446449496100     -7.563014050810
     152   51  2  -0.48200    -14.355714772600     17.989057850800     -7.595435685240
     153   51  2  -0.48200    -14.188084093800     16.903841141500     -7.530592416380
     154   52  1   0.96400     -0.203251940180      3.325745318450     10.804450246300
     155   52  2  -0.48200     -0.546710814302      2.896456569870     10.788728537300
     156   52  2  -0.48200      0.140206933941      3.755034067030     10.820171955200
     157   53  1   0.96400     19.751297200300      1.736875609170     15.865522239500
     158   53  2  -0.48200     20.012528697328      2.209127194040     15.971524812800
     159   53  2  -0.48200     19.490065703300      1.264624024290     15.759519666100
     160   54  1   0.96400      0.380766812769     -6.681786148310     -9.802317461570
     161   54  2  -0.48200     -0.046577543382     -6.488684797170    -10.089699906100
     162   54  2  -0.48200      0.808111168919     -6.874887499450     -9.514935016990
     163   55  1   0.96400     -5.784802649590      3.964633572950      1.196525090920
     164   55  2  -0.48200     -5.833032239040      3.447898613590      1.014429268690
     165   55  2  -0.48200     -5.736573060140      4.481368532320      1.378620913150
     166   56  1   0.96400     -0.262480623853    -11.307940540000     -5.647572886450
     167   56  2  -0.48200     -0.314005400486    -11.855517616200     -5.649704334600
     168   56  2  -0.48200     -0.210955847221    -10.760363463900     -5.645441438300
     169   57  1   0.96400     18.891991273500    -10.029885197000    -15.605799290300
     170   57  2  -0.48200     18.394317394100    -10.060912513100    -15.837872587900
     171   57  2  -0.48200     19.389665152800     -9.998857881010    -15.373725992700
     172   58  1   0.96400     -7.712177532180     -0.643002094647     -5.171523306270
     173   58  2  -0.48200     -7.726439171110     -0.188485812819     -4.862150464530
     174   58  2  -0.48200     -7.697915893250     -1.097518376470     -5.480896148010
     175   59  1   0.96400     -6.666739547150      4.332744941390     -9.743829391860
     176   59  2  -0.48200     -6.725488592090      3.786824011740     -9.711909362310
     177   59  2  -0.48200     -6.607990502200      4.878665871040     -9.775749421410
     178   60  1   0.96400     -7.000363536140      8.177157905900      4.499849231900
     179   60  2  -0.48200     -7.130764491550      8.662105967620      4.275525875440
     180   60  2  -0.48200     -6.869962580730      7.692209844170      4.724172588360
     181   61  1   0.96400     18.416857400200     -8.294003777130      5.061907567750
     182   61  2  -0.48200     18.214474853200     -8.422370671630      4.566868937860
     183   61  2  -0.48200     18.619239947200     -8.165636882630      5.556946197640
     184   62  1   0.96400      3.869411980210     11.205788184100     -0.364913575877
     185   62  2  -0.48200      3.367907323410     11.365231855200     -0.524822284041
     186   62  2  -0.48200      4.370916637010     11.046344513000     -0.205004867713
     187   63  1   0.96400     -7.924011680010     12.793856159700     -1.327691559230
     188   63  2  -0.48200     -7.648916701970     12.351013638800     -1.152439584000
     189   63  2  -0.48200     -8.199106658050     13.236698680500     -1.502943534450
     190   64  1   0.96400     -7.299817147290      5.148624601440    -19.741228362000
     191   64  2  -0.48200     -7.445761502200      4.646951636800    -19.913055256900
     192   64  2  -0.48200     -7.153872792380      5.650297566080    -19.569401467100
     193   65  1   0.96400     18.828605158100     19.414779599500     17.074313747300
     194   65  2  -0.48200     18.328195919800     19.593637450400     16.932537644300
     195   65  2  -0.48200     19.329014396400     19.235921748500     17.216089850300
     196   66  1   0.96400      0.331016823235      1.012694829830      6.156716088820
     197   66  2  -0.48200      0.453274227825      1.282798510580      6.619962382560
     198   66  2  -0.48200      0.208759418645      0.742591149073      5.693469795080
     199   67  1   0.96400     -1.189515066980     18.136174157100      8.588593305820
     200   67  2  -0.48200     -1.336032806320     17.707020386100      8.277370567480
     201   67  2  -0.48200     -1.042997327640     18.565327928200      8.899816044160
     202   68  1   0.96400      1.788125368240     -5.165839652360     -3.633642749100
     203   68  2  -0.48200      1.422609152870     -5.298467371510     -3.244659736090
     204   68  2  -0.48200      2.153641583620     -5.033211933210     -4.022625762120
     205   69  1   0.96400     10.534903397400     -3.759299258400     18.048256029700
     206   69  2  -0.48200     10.570274802700     -4.263520981430     18.265072352300
     207   69  2  -0.48200     10.499531992200     -3.255077535380     17.831439707200
     208   70  1   0.96400    -11.796985818100     -3.674914244710     -7.543132658450
     209   70  2  -0.48200    -12.305638791600     -3.566531888820     -7.722089126520
     210   70  2  -0.48200    -11.288332844600     -3.783296600600     -7.364176190390
     211   71  1   0.96400      7.277582436720    -16.138653913100    -16.737385523400
     212   71  2  -0.48200      6.971826739090    -15.695287988700    -16.848920766200
     213   71  2  -0.48200      7.583338134350    -16.582019837600    -16.625850280600
     214   72  1   0.96400    -11.260623434800      3.371923220110    -14.749930835700
     215   72  2  -0.48200    -11.633026579300      3.015480039730    -14.558191019500
     216   72  2  -0.48200    -10.888220290300      3.728366400490    -14.941670651900
     217   73  1   0.96400     -1.711191963780     19.076915632600     -9.654518462330
     218   73  2  -0.48200     -1.823578418020     19.557908666000     -9.896417173980
     219   73  2  -0.48200     -1.598805509550     18.595922599200     -9.412619750680
     220   74  1   0.96400      9.569753921870     -1.174332811650     -7.137908521040
     221   74  2  -0.48200      9.358357651090     -1.121192710310     -6.632945407210
     222   74  2  -0.48200      9.781150192650     -1.227472912980     -7.642871634870
     223   75  1   0.96400     -7.374042032260    -13.397335338500    -13.126167263300
     224   75  2  -0.48200     -6.865422773110    -13.270415807500    -12.959740457000
     225   75  2  -0.48200     -7.882661291400    -13.524254869500    -13.292594069700
     226   76  1   0.96400     16.081955037500     -4.588382310330    -18.325163217400
     227   76  2  -0.48200     16.078657324700     -4.086934683600    -18.099244199300
     228   76  2  -0.48200     16.085252750200     -5.089829937050    -18.551082235500
     229   77  1   0.96400    -11.123681228100     11.862389966000     -7.118921835490
     230   77  2  -0.48200    -11.363779877700     11.488277288700     -7.442792709750
     231   77  2  -0.48200    -10.883582578500     12.236502643200     -6.795050961230
     232   78  1   0.96400     18.346774263400      9.473305374230     -2.584131948020
     233   78  2  -0.48200     17.856283708000      9.224723210210     -2.572910415450
     234   78  2  -0.48200     18.837264818900      9.721887538250     -2.595353480590
     235   79  1   0.96400     15.201382343800    -16.452135343900     17.892714330400
     236   79  2  -0.48200     15.281862690300    -16.822181798200     18.291573372500
     237   79  2  -0.48200     15.120901997300    -16.082088889500     17.493855288300
     238   80  1   0.96400     -6.214971679290    -13.313302306400     19.527772239400
     239   80  2  -0.48200     -5.978937182500    -13.648382248100     19.894527129000
     240   80  2  -0.48200     -6.451006176080    -12.978222364800     19.161017349800
     241   81  1   0.96400    -16.066158485200    -14.634829096000     13.380166806400
     242   81  2  -0.48200    -15.846119001200    -15.055687727000     13.657584611000
     243   81  2  -0.48200    -16.286197969100    -14.213970465100     13.102749001900
     244   82  1   0.96400    -17.754444269800     -4.880822813230     15.425114501300
     245   82  2  -0.48200    -17.309348279700     -4.792432869630     15.735882545700
     246   82  2  -0.48200    -18.199540260000     -4.969212756830     15.114346457000
     247   83  1   0.96400     14.776263899400    -13.579192016600     12.588051674000
     248   83  2  -0.48200     14.712743368500    -13.993902683700     12.943692229600
     249   83  2  -0.48200     14.839784430200    -13.164481349600     12.232411118400
     250   84  1   0.96400      9.292649151800     -3.437912079850    -14.046099620800
     251   84  2  -0.48200      8.902497875810     -3.309973089160    -13.680157553700
     252   84  2  -0.48200      9.682800427780     -3.565851070540    -14.412041688000
     253   85  1   0.96400      4.674764953880     10.389433922000    -10.337497500700
     254   85  2  -0.48200      4.504631303420     10.910554329400    -10.382085189500
     255   85  2  -0.48200      4.844898604330      9.868313514630    -10.292909811900
     256   86  1   0.96400     12.523187352800      2.285148812710     19.520645032100
     257   86  2  -0.48200     12.764608254200      2.516117972380     19.957530824600
     258   86  2  -0.48200     12.281766451500      2.054179653030     19.083759239600
     259   87  1   0.96400     -3.476593669610     15.259750115300     17.639688023500
     260   87  2  -0.48200     -3.228333752420     15.016365939200     17.213505954000
     261   87  2  -0.48200     -3.724853586790     15.503134291400     18.065870093000
     262   88  1   0.96400      0.547456033731     -5.949380746490     12.064758117700
     263   88  2  -0.48200      0.983903949541     -6.266705473050     12.171145310100
     264   88  2  -0.48200      0.111008117921     -5.632056019920     11.958370925400
     265   89  1   0.96400     -6.733570756680     -2.688697181080     10.722653129000
     266   89  2  -0.48200     -7.106585317230     -2.837159344290     11.098577488000
     267   89  2  -0.48200     -6.360556196120     -2.540235017870     10.346728769900
     268   90  1   0.96400     -6.215490716090    -14.931307399200      2.525514029880
     269   90  2  -0.48200     -6.535906318270    -14.484526428600      2.540366846420
     270   90  2  -0.48200     -5.895075113910    -15.378088369900      2.510661213340
     271   91  1   0.96400    -14.084428205200     -6.464159249400     15.504061071800
     272   91  2  -0.48200    -13.875789079900     -6.282112443120     15.028846724700
     273   91  2  -0.48200    -14.293067330600     -6.646206055690     15.979275418900
     274   92  1   0.96400      5.127456168810      4.615505540000     12.640858059800
     275   92  2  -0.48200      5.362806283460      4.434511964230     12.177876797700
     276   92  2  -0.48200      4.892106054170      4.796499115780     13.103839321900
     277   93  1   0.96400     14.382203874200      6.020186611870      4.218922467830
     278   93  2  -0.48200     13.944374861700      6.006848269300      3.886314824550
     279   93  2  -0.48200     14.820032886800      6.033524954430      4.551530111100
     280   94  1   0.96400    -10.436393300500    -11.653132925600     -3.907420406900
     281   94  2  -0.48200    -10.121282039900    -11.470295096700     -4.319458295650
     282   94  2  -0.48200    -10.751504561100    -11.835970754500     -3.495382518150
     283   95  1   0.96400     18.089442149900    -11.279177138000     17.402510164100
     284   95  2  -0.48200     17.706164509900    -11.660412930100     17.301230740900
     285   95  2  -0.48200     18.472719789800    -10.897941345900     17.503789587200
     286   96  1   0.96400    -14.738028431100    -10.876748784400     16.090728730800
     287   96  2  -0.48200    -14.839529200900    -10.336529954400     16.071723221300
     288   96  2  -0.48200    -14.636527661200    -11.416967614500     16.109734240300
     289   97  1   0.96400     11.474243011700    -12.741441453400    -12.668376018600
     290   97  2  -0.48200     11.563679214200    -13.270188004300    -12.790557239300
     291   97  2  -0.48200     11.384806809200    -12.212694902600    -12.546194798000
     292   98  1   0.96400    -19.758298184500     -1.659068712940      8.635397355390
     293   98  2  -0.48200    -19.409463794400     -1.881751702170      8.273144881830
     294   98  2  -0.48200    -20.107132574628     -1.436385723720      8.997649828960
     295   99  1   0.96400    -17.591285977500    -18.512825127800      7.505341656310
     296   99  2  -0.48200    -17.684961612600    -18.517936320600      6.963401852360
     297   99  2  -0.48200    -17.497610342500    -18.507713935000      8.047281460260
     298  100  1   0.96400     16.515590064700     -8.482555261870     -6.233423185920
     299  100  2  -0.48200     16.690139182200     -8.516556733050     -6.753881162650
     300  100  2  -0.48200     16.341040947200     -8.448553790690     -5.712965209200
     301  101  1   0.96400     -2.807156170770      2.349943545850     -9.317493548900
     302  101  2  -0.48200     -2.516171212420      2.293354310450     -8.854216728360
     303  101  2  -0.48200     -3.098141129120      2.406532781240     -9.780770369440
     304  102  1   0.96400      2.201271074740      8.591397996180    -13.829076482800
     305  102  2  -0.48200      1.809541665640      8.914134961600    -14.040946540200
     306  102  2  -0.48200      2.593000483840      8.268661030760    -13.617206425500
     307  103  1   0.96400     11.900547027100      6.787744270020    -14.518516806300
     308  103  2  -0.48200     11.875114935000      6.911583651020    -13.983243963300
     309  103  2  -0.48200     11.925979119200      6.663904889030    -15.053789649200
     310  104  1   0.96400    -12.722016795900      0.855672291606    -16.962291522800
     311  104  2  -0.48200    -12.880956124300      0.349291462131    -16.818011429200
     312  104  2  -0.48200    -12.563077467400      1.362053121080    -17.106571616400
     313  105  1   0.96400     -6.529560423950      7.568698373190     -5.762086605880
     314  105  2  -0.48200     -7.039038368120      7.546803838820     -5.556045702750
     315  105  2  -0.48200     -6.020082479770      7.590592907560     -5.968127509000
     316  106  1   0.96400     -6.327799427580      8.398634824100     -2.372997242460
     317  106  2  -0.48200     -6.709797755220      8.106206503050     -2.639573600620
     318  106  2  -0.48200     -5.945801099940      8.691063145150     -2.106420884290
     319  107  1   0.96400    -14.587963073200    -19.727606677700     -1.529902700260
     320  107  2  -0.48200    -14.526729660900    -20.091432520328     -1.122004152220
     321  107  2  -0.48200    -14.649196485500    -19.363780835200     -1.937801248310
     322  108  1   0.96400     12.998305049400     16.116756687900     -7.300587411470
     323  108  2  -0.48200     12.674218566800     16.549231757400     -7.198444051660
     324  108  2  -0.48200     13.322391532100     15.684281618300     -7.402730771270
     325  109  1   0.96400    -15.397956313100     12.201529088100     -0.553973704989
     326  109  2  -0.48200    -15.519303578000     12.441705954300     -1.033650590220
     327  109  2  -0.48200    -15.276609048200     11.961352221900     -0.074296819755
     328  110  1   0.96400    -11.037762018800    -13.523246746100     -6.971124220690
     329  110  2  -0.48200    -10.608840863100    -13.179469670600     -6.952577942120
     330  110  2  -0.48200    -11.466683174600    -13.867023821700     -6.989670499250
     331  111  1   0.96400     10.300668824800    -17.661389097500     -0.638517446739
     332  111  2  -0.48200     10.197445609100    -17.874087888000     -1.135110028500
     333  111  2  -0.48200     10.403892040500    -17.448690307000     -0.141924864976
     334  112  1   0.96400     -8.841848851630     16.917659669200     11.302058778100
     335  112  2  -0.48200     -8.525375187450     16.769342311400     11.726730864900
     336  112  2  -0.48200     -9.158322515810     17.065977027000     10.877386691400
     337  113  1   0.96400    -15.833066134500      6.060846898200     -7.262062195110
     338  113  2  -0.48200    -16.134313373900      5.662309974810     -7.032022152050
     339  113  2  -0.48200    -15.531818895000      6.459383821600     -7.492102238170
     340  114  1   0.96400    -10.077092323400     -1.458221068490     15.339568003500