LAMMPS Atom File

         3000 atoms
         2000 bonds
         1000 angles
           0 dihedrals
           0 impropers

           2 atom types
           1 bond types
           1 angle types

         0.0  103.447325445 xlo xhi
         0.0  103.447325445 ylo yhi
         0.0  103.447325445 zlo zhi

Masses

         1    1.0e-20
         2   14.00670

Atoms

       1    1  1   0.96400    -29.439130400500     38.910970933300      8.985593739320
       2    1  2  -0.48200    -29.125367067000     38.999117207200      9.428631892260
       3    1  2  -0.48200    -29.752893734000     38.822824659400      8.542555586390
       4    2  1   0.96400     26.632086293400     -0.948073401174      5.425555852050
       5    2  2  -0.48200     26.885215440700     -1.416422857640      5.287445673590
       6    2  2  -0.48200     26.378957146000     -0.479723944711      5.563666030510
       7    3  1   0.96400    -35.068775519100    -50.354946522500     46.147559869100
       8    3  2  -0.48200    -34.928206970700    -50.468923252000     45.628185449000
       9    3  2  -0.48200    -35.209344067600    -50.240969792900     46.666934289300
      10    4  1   0.96400     29.325809586800    -41.608232354700    -10.529312868300
      11    4  2  -0.48200     29.782409117500    -41.407774345300    -10.761333244800
      12    4  2  -0.48200     28.869210056100    -41.808690364000    -10.297292491900
      13    5  1   0.96400    -17.224599154100     49.085759039800      8.053543725120
      14    5  2  -0.48200    -17.423632464600     49.334995465200      8.501613971370
      15    5  2  -0.48200    -17.025565843700     48.836522614300      7.605473478870
      16    6  1   0.96400    -15.759097268400     47.807783056400    -51.177317432100
      17    6  2  -0.48200    -15.698535945800     47.266354707300    -51.252734068600
      18    6  2  -0.48200    -15.819658590900     48.349211405400    -51.101900795700
      19    7  1   0.96400     41.660416292700      9.674837250500     -5.520748620100
      20    7  2  -0.48200     41.987858106600     10.113819811800     -5.469992641340
      21    7  2  -0.48200     41.332974478900      9.235854689190     -5.571504598870
      22    8  1   0.96400     42.326742917200    -14.750178840100     16.375470970000
      23    8  2  -0.48200     42.547958878300    -14.341340675500     16.081506935300
      24    8  2  -0.48200     42.105526956100    -15.159017004800     16.669435004700
      25    9  1   0.96400     15.307987366900     30.990980048800    -39.992286655900
      26    9  2  -0.48200     15.512452379600     31.400564749500    -39.687435165000
      27    9  2  -0.48200     15.103522354200     30.581395348000    -40.297138146800
      28   10  1   0.96400     27.475741734600     -8.890132043360     46.243410149900
      29   10  2  -0.48200     28.023783560500     -8.910229800530     46.285198153200
      30   10  2  -0.48200     26.927699908700     -8.870034286190     46.201622146600
      31   11  1   0.96400     -0.845087785764    -16.099714799500    -36.017223558100
      32   11  2  -0.48200     -0.711339139557    -15.998280437300    -35.493465627500
      33   11  2  -0.48200     -0.978836431971    -16.201149161600    -36.540981488600
      34   12  1   0.96400    -22.695650951200    -12.699560853000     17.625257099200
      35   12  2  -0.48200    -23.068595000000    -12.298722542700     17.677615340200
      36   12  2  -0.48200    -22.322706902300    -13.100399163300     17.572898858200
      37   13  1   0.96400    -26.921950644700    -38.830427317300     33.327648908100
      38   13  2  -0.48200    -27.400830952200    -38.602974548900     33.181228659500
      39   13  2  -0.48200    -26.443070337200    -39.057880085700     33.474069156800
      40   14  1   0.96400    -33.517408187500    -21.573180010900     33.710333946200
      41   14  2  -0.48200    -33.666851415200    -21.889998317800     34.134353853900
      42   14  2  -0.48200    -33.367964959900    -21.256361704100     33.286314038500
      43   15  1   0.96400     19.819145733000     37.701164645100     42.788056228100
      44   15  2  -0.48200     19.732358899000     37.173074003300     42.914895967300
      45   15  2  -0.48200     19.905932566900     38.229255287000     42.661216489000
      46   16  1   0.96400    -43.753539890500     50.077006710200     12.688958573600
      47   16  2  -0.48200    -43.472901812400     49.617167064100     12.799817804200
      48   16  2  -0.48200    -44.034177968700     50.536846356200     12.578099343000
      49   17  1   0.96400    -21.677077456700    -15.698487145800     26.139615513700
      50   17  2  -0.48200    -21.561475618000    -16.015579361000     25.705347460600
      51   17  2  -0.48200    -21.792679295500    -15.381394930500     26.573883566800
      52   18  1   0.96400     -6.631285923740     -4.735169530090     30.252987699700
      53   18  2  -0.48200     -7.113361359420     -4.999577202360     30.266838950600
      54   18  2  -0.48200     -6.149210488050     -4.470761857820     30.239136448800
      55   19  1   0.96400    -33.753975188800     -8.119578557850    -41.820844442100
      56   19  2  -0.48200    -34.135065168700     -7.830029288390    -41.549861697700
      57   19  2  -0.48200    -33.372885208900     -8.409127827320    -42.091827186500
      58   20  1   0.96400     44.865378864900    -42.868878823500     21.400750573900
      59   20  2  -0.48200     44.741314194700    -42.344408448400     21.510471963400
      60   20  2  -0.48200     44.989443535100    -43.393349198500     21.291029184400
      61   21  1   0.96400     13.960738224900    -19.192769417800     37.207992013400
      62   21  2  -0.48200     14.040963343300    -18.950845294600     36.720614696500
      63   21  2  -0.48200     13.880513106400    -19.434693541000     37.695369330300
      64   22  1   0.96400    -20.245139198700    -26.320951684200      7.567644993030
      65   22  2  -0.48200    -20.274060902100    -26.869092784000      7.602356226620
      66   22  2  -0.48200    -20.216217495200    -25.772810584400      7.532933759440
      67   23  1   0.96400    -10.198695513700     -7.071064883240     47.568575638200
      68   23  2  -0.48200     -9.952936260240     -7.343066636530     47.158554375900
      69   23  2  -0.48200    -10.444454767200     -6.799063129950     47.978596900500
      70   24  1   0.96400    -38.960502730700      8.348680471350    -34.012697659600
      71   24  2  -0.48200    -38.768055067800      8.809768418620    -33.782780713900
      72   24  2  -0.48200    -39.152950393600      7.887592524070    -34.242614605300
      73   25  1   0.96400    -49.394869182800     49.080878780100      2.685458354440
      74   25  2  -0.48200    -48.914847283200     48.826365994600      2.770911370430
      75   25  2  -0.48200    -49.874891082400     49.335391565600      2.600005338440
      76   26  1   0.96400    -20.898488612900     47.146751735000     -4.359477095730
      77   26  2  -0.48200    -21.178356723400     46.811806252200     -4.024834952120
      78   26  2  -0.48200    -20.618620502400     47.481697217800     -4.694119239340
      79   27  1   0.96400    -12.520927257600    -28.341543389300     33.494653432600
      80   27  2  -0.48200    -13.044197535100    -28.345103718100     33.663991971600
      81   27  2  -0.48200    -11.997656980100    -28.337983060500     33.325314893700
      82   28  1   0.96400     25.424588182900    -10.515152979900     24.132288107200
      83   28  2  -0.48200     25.360154700500    -10.799290395000     23.665796675700
      84   28  2  -0.48200     25.489021665300    -10.231015564800     24.598779538700
      85   29  1   0.96400     45.753084172800    -35.459773367000    -27.073308598800
      86   29  2  -0.48200     45.709352161100    -35.974012361500    -26.883188195800
      87   29  2  -0.48200     45.796816184600    -34.945534372400    -27.263429001700
      88   30  1   0.96400    -31.669995176000      6.391982413340     17.340611808700
      89   30  2  -0.48200    -31.372393378500      6.301584648160     16.887002489700
      90   30  2  -0.48200    -31.967596973400      6.482380178520     17.794221127600
      91   31  1   0.96400     42.873748874000    -23.426010290000    -39.515272660800
      92   31  2  -0.48200     43.357549519400    -23.351473589200    -39.766033933300
      93   31  2  -0.48200     42.389948228600    -23.500546990800    -39.264511388300
      94   32  1   0.96400     50.008029631800     18.713741343500    -38.629082367100
      95   32  2  -0.48200     49.783221487400     19.139645815500    -38.894726262100
      96   32  2  -0.48200     50.232837776200     18.287836871500    -38.363438472100
      97   33  1   0.96400     31.742505866600     50.979706758200     19.424812437800
      98   33  2  -0.48200     31.998021763100     50.823938480300     18.963349687200
      99   33  2  -0.48200     31.486989970000     51.135475036100     19.886275188400
     100   34  1   0.96400    -31.170938548700    -10.849727301300     19.423206391600
     101   34  2  -0.48200    -31.563359351400    -11.029278176400     19.082226338200
     102   34  2  -0.48200    -30.778517745900    -10.670176426200     19.764186445100
     103   35  1   0.96400     28.074442850200     36.925462233700     46.528294944800
     104   35  2  -0.48200     28.446753937400     36.524010821000     46.580460236100
     105   35  2  -0.48200     27.702131763100     37.326913646400     46.476129653500
     106   36  1   0.96400     20.010524923400    -16.880130171600     23.435430146600
     107   36  2  -0.48200     19.543139156200    -16.711688880200     23.671392169000
     108   36  2  -0.48200     20.477910690500    -17.048571462900     23.199468124200
     109   37  1   0.96400     33.511702319100    -48.242952998100    -41.992555102900
     110   37  2  -0.48200     33.667696558400    -48.350459902500    -42.508896136300
     111   37  2  -0.48200     33.355708079800    -48.135446093700    -41.476214069400
     112   38  1   0.96400    -21.884332113800    -40.059524144500     11.518256527500
     113   38  2  -0.48200    -21.892670103700    -40.603514284900     11.437601675700
     114   38  2  -0.48200    -21.875994123800    -39.515534004200     11.598911379400
     115   39  1   0.96400    -15.546478208400    -21.108139246900     47.803606544000
     116   39  2  -0.48200    -15.273622317200    -21.579607453100     47.727663188600
     117   39  2  -0.48200    -15.819334099600    -20.636671040800     47.879549899300
     118   40  1   0.96400     41.134147521700    -30.018704621600    -35.478302329100
     119   40  2  -0.48200     40.699574035700    -30.318046372500    -35.323252654700
     120   40  2  -0.48200     41.568721007600    -29.719362870700    -35.633352003400
     121   41  1   0.96400      2.933237241730     40.991479837300     46.066914638600
     122   41  2  -0.48200      3.232797001650     41.363383043100     46.339773495400
     123   41  2  -0.48200      2.633677481820     40.619576631500     45.794055781700
     124   42  1   0.96400      7.196073558260     13.900710528400    -13.483919331400
     125   42  2  -0.48200      7.228468424510     13.420125446200    -13.749416132500
     126   42  2  -0.48200      7.163678692000     14.381295610600    -13.218422530200
     127   43  1   0.96400    -51.068484872800     -8.494538688820     50.541795801000
     128   43  2  -0.48200    -51.590014912500     -8.631086229470     50.432886724800
     129   43  2  -0.48200    -50.546954833200     -8.357991148160     50.650704877200
     130   44  1   0.96400    -31.904757718000     42.217180667300     -9.676176684700
     131   44  2  -0.48200    -32.004307956300     41.844633532100     -9.284005316330
     132   44  2  -0.48200    -31.805207479700     42.589727802400    -10.068348053100
     133   45  1   0.96400     39.964275682200     28.311240718500     10.708026659900
     134   45  2  -0.48200     39.769087865100     27.851914939200     10.939157671600
     135   45  2  -0.48200     40.159463499300     28.770566497800     10.476895648200
     136   46  1   0.96400    -32.317921334100    -22.446981117100    -47.085410783400
     137   46  2  -0.48200    -31.922104691800    -22.828663744100    -47.073263445300
     138   46  2  -0.48200    -32.713737976500    -22.065298490000    -47.097558121400
     139   47  1   0.96400     -8.055641161770     40.869889373500    -15.301364914200
     140   47  2  -0.48200     -8.378915379500     40.586039127000    -15.644035043800
     141   47  2  -0.48200     -7.732366944050     41.153739620000    -14.958694784600
     142   48  1   0.96400     31.016766112600     28.391863710700      5.237434793550
     143   48  2  -0.48200     30.694690942900     28.713503266200      5.546167009840
     144   48  2  -0.48200     31.338841282400     28.070224155200      4.928702577270
     145   49  1   0.96400    -13.448883574300    -18.443938039600    -20.773063854500
     146   49  2  -0.48200    -13.013547297500    -18.613106094000    -21.063519523100
     147   49  2  -0.48200    -13.884219851100    -18.274769985200    -20.482608185800
     148   50  1   0.96400     -1.915807728210     -4.617786692500    -37.250785534300
     149   50  2  -0.48200     -1.369494829160     -4.557501933990    -37.230587410000
     150   50  2  -0.48200     -2.462120627260     -4.678071451010    -37.270983658600
     151   51  1   0.96400    -39.453814390900     46.958071136800    -17.336713085700
     152   51  2  -0.48200    -39.441981628900     47.484200761900    -17.176876909200
     153   51  2  -0.48200    -39.465647152900     46.431941511700    -17.496549262300
     154   52  1   0.96400      1.193964184230     15.691380355100     28.669571156900
     155   52  2  -0.48200      1.107605057430     15.945381893600     29.149701680500
     156   52  2  -0.48200      1.280323311030     15.437378816600     28.189440633300
     157   53  1   0.96400     47.289510469100      7.432384760700     47.288519556500
     158   53  2  -0.48200     47.269954727500      7.138920207200     47.753273393200
     159   53  2  -0.48200     47.309066210800      7.725849314210     46.823765719700
     160   54  1   0.96400      1.163665012870    -27.992063452600    -14.124525615000
     161   54  2  -0.48200      1.496201959820    -28.252220606900    -13.772052305300
     162   54  2  -0.48200      0.831128065916    -27.731906298400    -14.476998924600
     163   55  1   0.96400     -7.416030025560      6.457097877170     -4.714550693890
     164   55  2  -0.48200     -6.870429977180      6.522779572370     -4.692045091920
     165   55  2  -0.48200     -7.961630073950      6.391416181970     -4.737056295870
     166   56  1   0.96400     -7.871835959580    -30.787813304100    -12.317118647700
     167   56  2  -0.48200     -7.698125654820    -30.267439766300    -12.277925393800
     168   56  2  -0.48200     -8.045546264350    -31.308186841900    -12.356311901500
     169   57  1   0.96400     44.812396648500    -28.202952546000    -40.274181499600
     170   57  2  -0.48200     44.361693801500    -28.031954805400    -40.538995993900
     171   57  2  -0.48200     45.263099495500    -28.373950286700    -40.009367005300
     172   58  1   0.96400    -20.379125170000     -6.490327573570    -14.296603168100
     173   58  2  -0.48200    -20.382479505000     -7.027985015470    -14.180787695900
     174   58  2  -0.48200    -20.375770834900     -5.952670131660    -14.412418640300
     175   59  1   0.96400    -29.166264630100      8.160206298600    -21.661173736700
     176   59  2  -0.48200    -29.340015744700      8.560041032340    -21.325848915300
     177   59  2  -0.48200    -28.992513515400      7.760371564850    -21.996498558100
     178   60  1   0.96400    -14.091525352900     25.191261471300     13.657504809100
     179   60  2  -0.48200    -13.549626971500     25.272620337800     13.610314989000
     180   60  2  -0.48200    -14.633423734200     25.109902604700     13.704694629300
     181   61  1   0.96400    -12.300055104600     23.269744913800     16.225900349200
     182   61  2  -0.48200    -12.424727838200     23.670761265900     16.581065937200
     183   61  2  -0.48200    -12.175382371100     22.868728561700     15.870734761200
     184   62  1   0.96400     47.756641812200    -35.050798316500     13.291129012100
     185   62  2  -0.48200     47.483679654300    -35.164697699500     13.754829983600
     186   62  2  -0.48200     48.029603970000    -34.936898933400     12.827428040700
     187   63  1   0.96400     10.545445036100     19.665325404200     -8.284248790880
     188   63  2  -0.48200     10.861719451700     20.092511215800     -8.425609239380
     189   63  2  -0.48200     10.229170620600     19.238139592600     -8.142888342390
     190   64  1   0.96400    -21.920343765900     38.854279440900     -1.549094763510
     191   64  2  -0.48200    -21.766372898900     39.138167074500     -1.994292229340
     192   64  2  -0.48200    -22.074314632900     38.570391807200     -1.103897297690
     193   65  1   0.96400    -23.923506046700      9.779008066680    -47.508450305200
     194   65  2  -0.48200    -23.530781006500      9.640897205130    -47.149016816600
     195   65  2  -0.48200    -24.316231086900      9.917118928230    -47.867883793800
     196   66  1   0.96400     47.198281543800     49.160424220500     46.154112223400
     197   66  2  -0.48200     47.511360551000     49.581407101900     45.989021494400
     198   66  2  -0.48200     46.885202536600     48.739441339100     46.319202952400
     199   67  1   0.96400      8.774941454780      2.289186518390      7.140053896220
     200   67  2  -0.48200      8.958186574280      2.659080267700      6.776598478870
     201   67  2  -0.48200      8.591696335290      1.919292769090      7.503509313580
     202   68  1   0.96400     -4.436212531030     42.943325690500     31.041553300800
     203   68  2  -0.48200     -4.544819936620     42.410544207300     30.958798708200
     204   68  2  -0.48200     -4.327605125440     43.476107173800     31.124307893400
     205   69  1   0.96400      3.978227316880    -12.026458222000    -11.753916997400
     206   69  2  -0.48200      4.147559456760    -12.113368197900    -11.237900251000
     207   69  2  -0.48200      3.808895177000    -11.939548246100    -12.269933743700
     208   70  1   0.96400     32.208235257500     -5.350804118550     37.716677383800
     209   70  2  -0.48200     31.935085360900     -5.669430612370     38.072157750900
     210   70  2  -0.48200     32.481385154100     -5.032177624740     37.361197016600
     211   71  1   0.96400    -30.948722355000      1.246971916850    -19.433717144500
     212   71  2  -0.48200    -30.919412311200      1.466782247180    -19.937030506200
     213   71  2  -0.48200    -30.978032398900      1.027161586520    -18.930403782900
     214   72  1   0.96400     22.590199675200    -43.474182919100    -40.802925294700
     215   72  2  -0.48200     22.873554960700    -43.358040697300    -40.346065615500
     216   72  2  -0.48200     22.306844389600    -43.590325140900    -41.259784973900
     217   73  1   0.96400    -25.247833077400      7.180931745220    -32.556635101500
     218   73  2  -0.48200    -24.967620803900      7.462945841130    -32.936699742700
     219   73  2  -0.48200    -25.528045350900      6.898917649310    -32.176570460200
     220   74  1   0.96400     -5.548543125540    -39.164699339500    -20.929202213900
     221   74  2  -0.48200     -5.724976796380    -39.524344601300    -20.552338252400
     222   74  2  -0.48200     -5.372109454700    -38.805054077800    -21.306066175400
     223   75  1   0.96400     36.546166277000      6.105564978940    -20.408502860300
     224   75  2  -0.48200     36.537864734400      5.870769717710    -20.905797812700
     225   75  2  -0.48200     36.554467819600      6.340360240170    -19.911207907900
     226   76  1   0.96400    -21.725855966000    -36.807777304800    -30.283825251100
     227   76  2  -0.48200    -21.871465895800    -36.768335177300    -29.754918768900
     228   76  2  -0.48200    -21.580246036300    -36.847219432200    -30.812731733300
     229   77  1   0.96400    -16.679619867300    -46.468883469400     -0.057828851652
     230   77  2  -0.48200    -16.610716263000    -46.965267169300     -0.284446405660
     231   77  2  -0.48200    -16.748523471600    -45.972499769500      0.168788702356
     232   78  1   0.96400     48.390989173500     -4.507104925220    -48.279627272300
     233   78  2  -0.48200     47.987178844500     -4.223350777940    -48.522363347300
     234   78  2  -0.48200     48.794799502500     -4.790859072500    -48.036891197400
     235   79  1   0.96400    -29.520976697300     35.812098459200    -20.961668102200
     236   79  2  -0.48200    -29.708423400200     36.298539872200    -20.786344158300
     237   79  2  -0.48200    -29.333529994400     35.325657046200    -21.136992046100
     238   80  1   0.96400      0.436645635052     39.203915874400     31.249424323700
     239   80  2  -0.48200      0.501327553035     39.680684928400     31.515896683600
     240   80  2  -0.48200      0.371963717070     38.727146820300     30.982951963700
     241   81  1   0.96400     44.564382884900     20.335794414900      2.305142756030
     242   81  2  -0.48200     44.695865891500     19.802666708700      2.336560392130
     243   81  2  -0.48200     44.432899878300     20.868922121100      2.273725119940
     244   82  1   0.96400     38.955300312300    -42.411549797500     49.529964494000
     245   82  2  -0.48200     38.499665850100    -42.325066220700     49.825629554200
     246   82  2  -0.48200     39.410934774400    -42.498033374400     49.234299433800
     247   83  1   0.96400    -26.159940030300    -40.348576976300    -43.817379718800
     248   83  2  -0.48200    -26.586575763900    -40.365348429300    -43.470680037200
     249   83  2  -0.48200    -25.733304296800    -40.331805523300    -44.164079400500
     250   84  1   0.96400    -40.166039021000    -41.549342489500     34.898673644500
     251   84  2  -0.48200    -40.296274677300    -41.033571274800     35.038383085300
     252   84  2  -0.48200    -40.035803364700    -42.065113704300     34.758964203800
     253   85  1   0.96400     50.518362310100    -10.789887944000     35.398221905000
     254   85  2  -0.48200     50.954893277200    -10.470559661500     35.498072607500
     255   85  2  -0.48200     50.081831343000    -11.109216226500     35.298371202600
     256   86  1   0.96400     33.946814338800    -24.572064381000     42.074400338000
     257   86  2  -0.48200     34.080678946700    -24.673145234600     41.550603690600
     258   86  2  -0.48200     33.812949731000    -24.470983527500     42.598196985300
     259   87  1   0.96400     20.134295876100    -11.969297331300    -39.802759175700
     260   87  2  -0.48200     19.618657216100    -11.827081274600    -39.674730407400
     261   87  2  -0.48200     20.649934536100    -12.111513388000    -39.930787944100
     262   88  1   0.96400      2.464263445560     25.719129984700    -22.344761784000
     263   88  2  -0.48200      2.934889119820     25.940151903100    -22.524096070600
     264   88  2  -0.48200      1.993637771300     25.498108066400    -22.165427497400
     265   89  1   0.96400     43.662919641400      8.142278663460     47.787572438600
     266   89  2  -0.48200     43.968164250000      7.880735593570     48.162966833200
     267   89  2  -0.48200     43.357675032700      8.403821733350     47.412178044000
     268   90  1   0.96400    -18.332384694800     48.293715826700     37.400387376400
     269   90  2  -0.48200    -17.979076552500     48.678258565600     37.227759920600
     270   90  2  -0.48200    -18.685692837100     47.909173087700     37.573014832300
     271   91  1   0.96400      2.846820058650    -26.518794681100     40.517141363700
     272   91  2  -0.48200      2.962535723110    -26.736493229400     41.008788825900
     273   91  2  -0.48200      2.731104394190    -26.301096132800     40.025493901600
     274   92  1   0.96400    -19.673913624400     -7.909460644310     23.174986673600
     275   92  2  -0.48200    -20.116248256700     -8.161825557390     23.382717325500
     276   92  2  -0.48200    -19.231578992100     -7.657095731230     22.967256021800
     277   93  1   0.96400     -7.205590322320    -40.666117142200     15.120150978300
     278   93  2  -0.48200     -7.723008930300    -40.764364360100     15.278661130400
     279   93  2  -0.48200     -6.688171714350    -40.567869924400     14.961640826300
     280   94  1   0.96400    -43.079701036900    -31.146839602100     43.813221741400
     281   94  2  -0.48200    -43.352411226900    -30.753562527200     44.084261027600
     282   94  2  -0.48200    -42.806990846900    -31.540116677000     43.542182455300
     283   95  1   0.96400      9.174523689180     18.646394370000     27.951017275800
     284   95  2  -0.48200      9.340414647050     18.124764072800     28.004701754000
     285   95  2  -0.48200      9.008632731320     19.168024667100     27.897332797600
     286   96  1   0.96400     30.743932265000     13.359444273600      7.671630892440
     287   96  2  -0.48200     30.922391812400     12.891091561100      7.445140436490
     288   96  2  -0.48200     30.565472717600     13.827796986100      7.898121348390
     289   97  1   0.96400    -23.434188082500    -24.383659355300    -12.369301565300
     290   97  2  -0.48200    -23.744505469800    -24.836534033100    -12.402582872200
     291   97  2  -0.48200    -23.123870695200    -23.930784677600    -12.336020258500
     292   98  1   0.96400     46.095891101600    -25.288945741000     37.726376475400
     293   98  2  -0.48200     46.098614946200    -25.826967523300     37.612248729300
     294   98  2  -0.48200     46.093167257000    -24.750923958700     37.840504221600
     295   99  1   0.96400    -26.383791721700    -23.878179515300     39.642457202500
     296   99  2  -0.48200    -26.904341509600    -24.053931202900     39.667740845500
     297   99  2  -0.48200    -25.863241933800    -23.702427827600     39.617173559500
     298  100  1   0.96400     26.969806226100    -28.575464705600    -25.858620448300
     299  100  2  -0.48200     26.848821584300    -28.642711627100    -25.326323005200
     300  100  2  -0.48200     27.090790867900    -28.508217784100    -26.390917891500
     301  101  1   0.96400    -45.400153616700    -26.106688646100     51.092561364000
     302  101  2  -0.48200    -44.903324854700    -26.059465712700     50.861409518200
     303  101  2  -0.48200    -45.896982378700    -26.153911579400     51.323713209700
     304  102  1   0.96400    -51.427980641600    -11.762920255200     24.159844656700
     305  102  2  -0.48200    -51.042206116800    -11.620677280600     24.525145836800
     306  102  2  -0.48200    -51.813755166399    -11.905163229800     23.794543476600
     307  103  1   0.96400    -41.006781389000     46.227838927600     21.679072525600
     308  103  2  -0.48200    -41.504400925700     46.461758203500     21.666559767100
     309  103  2  -0.48200    -40.509161852400     45.993919651700     21.691585284000
     310  104  1   0.96400     35.996308183400    -18.446104432600    -18.247039681300
     311  104  2  -0.48200     35.583129808600    -18.091156002300    -18.170913191600
     312  104  2  -0.48200     36.409486558200    -18.801052862900    -18.323166171000
     313  105  1   0.96400     -0.907360985301     12.132929200900    -29.250376975600
     314  105  2  -0.48200     -0.675696227478     11.634948817500    -29.279479857100
     315  105  2  -0.48200     -1.139025743120     12.630909584400    -29.221274094200
     316  106  1   0.96400     -4.503937784920     26.848820370000    -31.063350473800
     317  106  2  -0.48200     -4.478153521920     26.554627646600    -30.599361451000
     318  106  2  -0.48200     -4.529722047920     27.143013093400    -31.527339496600
     319  107  1   0.96400     31.972615242700     20.129068800100    -39.647777471000
     320  107  2  -0.48200     31.541580038000     20.182740668500    -39.985161499700
     321  107  2  -0.48200     32.403650447300     20.075396931700    -39.310393442200
     322  108  1   0.96400    -34.085222033500      6.820624604500    -48.145011674500
     323  108  2  -0.48200    -33.685691385400      7.193975661270    -48.204039207300
     324  108  2  -0.48200    -34.484752681600      6.447273547730    -48.085984141700
     325  109  1   0.96400    -19.617522449000     10.992752485700    -17.628196703800
     326  109  2  -0.48200    -20.144928688000     11.144442764900    -17.664703118200
     327  109  2  -0.48200    -19.090116210000     10.841062206500    -17.591690289500
     328  110  1   0.96400    -12.101362792300     28.590600533400     -5.366861809370
     329  110  2  -0.48200    -12.633450455900     28.498663599500     -5.262313646370
     330  110  2  -0.48200    -11.569275128600     28.682537467200     -5.471409972360
     331  111  1   0.96400    -39.544221768300    -49.144455494100     -4.812005076780
     332  111  2  -0.48200    -39.964664330100    -48.933920564200     -4.526692799640
     333  111  2  -0.48200    -39.123779206400    -49.354990424000     -5.097317353910
     334  112  1   0.96400     32.515734519200     40.306639671700    -16.487192873500
     335  112  2  -0.48200     32.532799964300     40.229239735800    -17.031452021800
     336  112  2  -0.48200     32.498669074100     40.384039607700    -15.942933725200
     337  113  1   0.96400    -42.447044924600     32.235844520200     -4.931291401610
     338  113  2  -0.48200    -42.823372767400     32.020840748800     -4.592690260130
     339  113  2  -0.48200    -42.070717081800     32.450848291700     -5.269892543090
     340  114  1   0.96400    -20.257750124700    -32.063741650600    -26.286694570300