LAMMPS Atom File

         3000 atoms
         2000 bonds
         1000 angles
           0 dihedrals
           0 impropers

           2 atom types
           1 bond types
           1 angle types

         0.0  38.8129726695 xlo xhi
         0.0  38.8129726695 ylo yhi
         0.0  38.8129726695 zlo zhi

Masses

         1    1.0e-20
         2   14.00670

Atoms

       1    1  1   0.96400    -12.708811225500     16.233830342700     -0.653300843975
       2    1  2  -0.48200    -13.036097270700     16.525545446800     -0.985394419208
       3    1  2  -0.48200    -12.381525180400     15.942115238600     -0.321207268743
       4    2  1   0.96400      6.655236884530      1.173280419640     -2.969085315530
       5    2  2  -0.48200      7.115690934240      1.044197527510     -3.240783079710
       6    2  2  -0.48200      6.194782834810      1.302363311780     -2.697387551350
       7    3  1   0.96400    -13.111731161100     18.616297701400     14.061901096400
       8    3  2  -0.48200    -13.066591685600     19.089454672000     13.785161310900
       9    3  2  -0.48200    -13.156870636700     18.143140730700     14.338640881800
      10    4  1   0.96400     10.762957420800     16.899983853900     -1.631424558230
      11    4  2  -0.48200     10.577392149400     17.288649182000     -1.973484191490
      12    4  2  -0.48200     10.948522692300     16.511318525700     -1.289364924970
      13    5  1   0.96400     -9.908177533530     18.752075414100     -0.187028773969
      14    5  2  -0.48200     -9.986784048780     18.928067567700      0.328090413830
      15    5  2  -0.48200     -9.829571018280     18.576083260500     -0.702147961768
      16    6  1   0.96400     -5.489060177800     15.034133298700    -19.384143109200
      17    6  2  -0.48200     -5.091296594610     14.921031249000    -19.021524772300
      18    6  2  -0.48200     -5.886823760980     15.147235348400    -19.746761446036
      19    7  1   0.96400     16.497096537700      1.992028717090     -4.704773952610
      20    7  2  -0.48200     16.187089433500      2.401536193370     -4.901495131370
      21    7  2  -0.48200     16.807103642000      1.582521240800     -4.508052773850
      22    8  1   0.96400     13.337293968400     -4.121579221410      5.326921500640
      23    8  2  -0.48200     13.592325700800     -4.395092043110      5.730219841620
      24    8  2  -0.48200     13.082262236000     -3.848066399710      4.923623159650
      25    9  1   0.96400      7.454027620460     15.428722696600    -16.949311927500
      26    9  2  -0.48200      7.860259290670     15.403181537700    -17.319208506700
      27    9  2  -0.48200      7.047795950240     15.454263855400    -16.579415348300
      28   10  1   0.96400      5.703632166860     -9.862625337490    -19.177369886800
      29   10  2  -0.48200      5.786094940260     -9.874724639290    -18.633721564900
      30   10  2  -0.48200      5.621169393450     -9.850526035690    -19.721018208736
      31   11  1   0.96400     -3.128544155660     -4.792075085740    -15.475592515300
      32   11  2  -0.48200     -3.341616083340     -4.318437341400    -15.294574171600
      33   11  2  -0.48200     -2.915472227980     -5.265712830080    -15.656610859100
      34   12  1   0.96400     -7.801322394990     -5.600247523910      3.117475443380
      35   12  2  -0.48200     -7.943265707960     -6.026822603050      2.800638264760
      36   12  2  -0.48200     -7.659379082020     -5.173672444770      3.434312622010
      37   13  1   0.96400    -10.578468781500    -12.127786439900     11.778191431600
      38   13  2  -0.48200    -10.266139773000    -12.126571067700     11.325478373200
      39   13  2  -0.48200    -10.890797790000    -12.129001812000     12.230904490100
      40   14  1   0.96400    -15.739260434900     -5.211435200830     10.231586337000
      41   14  2  -0.48200    -15.575088210500     -5.383402231040     10.727544824400
      42   14  2  -0.48200    -15.903432659400     -5.039468170610      9.735627849580
      43   15  1   0.96400     17.973705391800     14.707367921600     17.140492821500
      44   15  2  -0.48200     18.495342639000     14.721669800200     16.966740012500
      45   15  2  -0.48200     17.452068144700     14.693066042900     17.314245630500
      46   16  1   0.96400      7.319587354350     15.188538463400     14.485218211300
      47   16  2  -0.48200      6.850017865820     14.928324554500     14.604772454500
      48   16  2  -0.48200      7.789156842880     15.448752372300     14.365663968200
      49   17  1   0.96400     18.886600968000     18.429380782500      4.685833379770
      50   17  2  -0.48200     19.011388505000     18.171919852100      4.216107992010
      51   17  2  -0.48200     18.761813431000     18.686841713000      5.155558767530
      52   18  1   0.96400     -8.134933661500     -6.733521910130     11.364302468400
      53   18  2  -0.48200     -7.786763652230     -6.543142082100     11.745134670000
      54   18  2  -0.48200     -8.483103670780     -6.923901738160     10.983470266900
      55   19  1   0.96400      1.859883568900     -2.475710337140     13.978699043300
      56   19  2  -0.48200      2.172437915100     -2.170306289810     13.644725768100
      57   19  2  -0.48200      1.547329222710     -2.781114384460     14.312672318500
      58   20  1   0.96400    -10.293548632900      0.661388740977    -14.060046668700
      59   20  2  -0.48200    -10.184321125800      0.131248642840    -13.962471938100
      60   20  2  -0.48200    -10.402776140000      1.191528839110    -14.157621399200
      61   21  1   0.96400     13.376484842800    -18.606458138300      6.630910226850
      62   21  2  -0.48200     13.204885775500    -19.116048848600      6.746543561510
      63   21  2  -0.48200     13.548083910200    -18.096867428100      6.515276892190
      64   22  1   0.96400      3.600200296760     -7.119114746060     14.776598619300
      65   22  2  -0.48200      3.916217181960     -7.553756498410     14.659466747500
      66   22  2  -0.48200      3.284183411570     -6.684472993710     14.893730491100
      67   23  1   0.96400     -4.033338843730     -8.225347537000      5.996104673150
      68   23  2  -0.48200     -4.144573019020     -8.344226352520      5.470752614560
      69   23  2  -0.48200     -3.922104668440     -8.106468721480      6.521456731750
      70   24  1   0.96400     -0.694673114879     -7.782498941610     17.878749467000
      71   24  2  -0.48200     -1.161876106230     -7.967497425140     18.102349390900
      72   24  2  -0.48200     -0.227470123525     -7.597500458080     17.655149543100
      73   25  1   0.96400    -15.334149590100      0.208967715124    -14.855198404800
      74   25  2  -0.48200    -15.071357518200      0.378048030781    -15.307804385600
      75   25  2  -0.48200    -15.596941662000      0.039887399466    -14.402592424100
      76   26  1   0.96400    -16.623736426700    -19.069734787400      1.181597109330
      77   26  2  -0.48200    -17.064044113000    -18.868087747700      1.442303098470
      78   26  2  -0.48200    -16.183428740400    -19.271381827000      0.920891120182
      79   27  1   0.96400     -5.372582060720    -11.920150998800      7.057032989500
      80   27  2  -0.48200     -5.360100584650    -12.145503356000      7.558591089690
      81   27  2  -0.48200     -5.385063536780    -11.694798641600      6.555474889310
      82   28  1   0.96400      9.636568725490     -2.604079014000     10.607190464700
      83   28  2  -0.48200     10.158348736200     -2.744747762980     10.504926475700
      84   28  2  -0.48200      9.114788714740     -2.463410265010     10.709454453700
      85   29  1   0.96400     14.498667911500    -14.863462925100    -10.495043103900
      86   29  2  -0.48200     14.334950237200    -15.108409207700    -10.959475921200
      87   29  2  -0.48200     14.662385585800    -14.618516642500    -10.030610286600
      88   30  1   0.96400    -14.337926341400     -1.199373962900      8.057440158020
      89   30  2  -0.48200    -14.288002919600     -0.734500752264      7.767784241460
      90   30  2  -0.48200    -14.387849763100     -1.664247173540      8.347096074580
      91   31  1   0.96400     15.141924022800     -8.387771693780    -13.701987183800
      92   31  2  -0.48200     14.609135897700     -8.256685664740    -13.740108920100
      93   31  2  -0.48200     15.674712147900     -8.518857722810    -13.663865447500
      94   32  1   0.96400    -13.884544769800      8.079633396000    -15.245290249900
      95   32  2  -0.48200    -13.757572974000      7.594909911570    -15.472052916000
      96   32  2  -0.48200    -14.011516565700      8.564356880430    -15.018527583900
      97   33  1   0.96400     14.349535565500    -19.332054088600      9.979533202500
      98   33  2  -0.48200     14.706106988600    -19.750791876336      9.983468344380
      99   33  2  -0.48200     13.992964142400    -18.913316300900      9.975598060620
     100   34  1   0.96400    -10.150797021200     -6.722256808770      7.516302140430
     101   34  2  -0.48200    -10.360989194800     -6.265629919480      7.293118059150
     102   34  2  -0.48200     -9.940604847620     -7.178883698060      7.739486221700
     103   35  1   0.96400     10.004620935600     18.342032811000     17.765736869400
     104   35  2  -0.48200      9.810045720480     18.696240629600     18.138801618300
     105   35  2  -0.48200     10.199196150700     17.987824992400     17.392672120400
     106   36  1   0.96400      7.091218929850     -9.191090614920      9.039140824630
     107   36  2  -0.48200      6.991017158910     -9.626070326810      8.717811934940
     108   36  2  -0.48200      7.191420700790     -8.756110903040      9.360469714320
     109   37  1   0.96400     15.231014389700     17.844693757900    -15.136248886800
     110   37  2  -0.48200     15.198980117800     17.442414548000    -14.762557513200
     111   37  2  -0.48200     15.263048661600     18.246972967700    -15.509940260500
     112   38  1   0.96400    -10.677325537800    -13.706372247000      6.605080710290
     113   38  2  -0.48200    -10.757512983900    -13.180679197600      6.745497202650
     114   38  2  -0.48200    -10.597138091700    -14.232065296300      6.464664217940
     115   39  1   0.96400    -11.923237045500     -5.601426432430    -16.268644224800
     116   39  2  -0.48200    -12.456001065600     -5.617005592380    -16.404363746900
     117   39  2  -0.48200    -11.390473025500     -5.585847272470    -16.132924702600
     118   40  1   0.96400     14.280836520500    -12.330160563800    -12.734761053300
     119   40  2  -0.48200     14.513662189900    -12.681680678300    -12.381595629200
     120   40  2  -0.48200     14.048010851000    -11.978640449300    -13.087926477300
     121   41  1   0.96400     -0.849635961182     15.085733270200     15.579349512900
     122   41  2  -0.48200     -1.122747819050     15.452035898400     15.273192204200
     123   41  2  -0.48200     -0.576524103314     14.719430642000     15.885506821500
     124   42  1   0.96400      2.803953441400      1.085339889610     -3.899938276160
     125   42  2  -0.48200      2.429331048620      1.439526960610     -3.708340829490
     126   42  2  -0.48200      3.178575834180      0.731152818617     -4.091535722830
     127   43  1   0.96400     19.008920916300     -3.028094266720    -17.351442667700
     128   43  2  -0.48200     18.869832412600     -2.542375358690    -17.134114504500
     129   43  2  -0.48200     19.148009420000     -3.513813174750    -17.568770830900
     130   44  1   0.96400     -9.620773785610     12.781572360000     -5.262105004940
     131   44  2  -0.48200     -9.143061138800     13.032781515300     -5.156347795420
     132   44  2  -0.48200    -10.098486432400     12.530363204700     -5.367862214460
     133   45  1   0.96400     16.825797485600     12.888163334000      0.895949198829
     134   45  2  -0.48200     16.753755766700     12.397941916600      0.657217230704
     135   45  2  -0.48200     16.897839204500     13.378384751500      1.134681166950
     136   46  1   0.96400    -14.717266242800    -11.130094645900    -19.002128341800
     137   46  2  -0.48200    -15.097807044900    -11.016971730100    -18.621481650100
     138   46  2  -0.48200    -14.336725440700    -11.243217561700    -19.382775033500
     139   47  1   0.96400     -5.160702587300     16.061964117100     -5.682518411340
     140   47  2  -0.48200     -5.568435192690     16.363033939300     -5.896085929120
     141   47  2  -0.48200     -4.752969981920     15.760894294900     -5.468950893550
     142   48  1   0.96400     12.977666738300      9.850271142950      3.515727854080
     143   48  2  -0.48200     12.691503326300      9.451207448420      3.763434675370
     144   48  2  -0.48200     13.263830150400     10.249334837500      3.268021032800
     145   49  1   0.96400     -4.849662578130     -5.079962602800     -8.029496945000
     146   49  2  -0.48200     -4.451240681910     -5.438634747110     -7.906556774580
     147   49  2  -0.48200     -5.248084474350     -4.721290458480     -8.152437115410
     148   50  1   0.96400      0.050834602407     -0.412055579345    -14.374203057600
     149   50  2  -0.48200      0.361415739362     -0.005503134196    -14.576080413200
     150   50  2  -0.48200     -0.259746534548     -0.818608024494    -14.172325701900
     151   51  1   0.96400    -13.822435035800    -18.672681362500     -8.118908583450
     152   51  2  -0.48200    -14.255102074100    -18.674827982600     -8.458459207080
     153   51  2  -0.48200    -13.389767997500    -18.670534742400     -7.779357959820
     154   52  1   0.96400     -3.247567362260      6.063453832450      9.000901217610
     155   52  2  -0.48200     -3.465567891260      5.652971207210      8.706826764900
     156   52  2  -0.48200     -3.029566833270      6.473936457690      9.294975670330
     157   53  1   0.96400     14.120798445100      7.528170143930     15.154681928500
     158   53  2  -0.48200     13.989164558100      7.512947560410     15.688480385600
     159   53  2  -0.48200     14.252432332100      7.543392727450     14.620883471500
     160   54  1   0.96400      0.610723231028     -9.364169911520     -4.593222622320
     161   54  2  -0.48200      0.441885964717     -9.489619632420     -4.085033341610
     162   54  2  -0.48200      0.779560497338     -9.238720190610     -5.101411903030
     163   55  1   0.96400     -1.410973426530      4.495752931430     -2.400031137900
     164   55  2  -0.48200     -0.927798729590      4.262861096550     -2.521701206050
     165   55  2  -0.48200     -1.894148123480      4.728644766300     -2.278361069760
     166   56  1   0.96400     -2.682310599530    -12.506000646400     -4.457384171140
     167   56  2  -0.48200     -2.385004900620    -12.898030270800     -4.211575109190
     168   56  2  -0.48200     -2.979616298440    -12.113971021900     -4.703193233090
     169   57  1   0.96400    -16.173171913300     -6.332814610900    -14.046542076900
     170   57  2  -0.48200    -16.262229522400     -6.324285218760    -14.589216925900
     171   57  2  -0.48200    -16.084114304200     -6.341344003040    -13.503867227900
     172   58  1   0.96400     -7.564501255010     -0.488382559527     -3.567199335570
     173   58  2  -0.48200     -7.046435021020     -0.666675728660     -3.615354532970
     174   58  2  -0.48200     -8.082567489000     -0.310089390393     -3.519044138180
     175   59  1   0.96400    -10.305583818000      7.161624822290     -4.465084468910
     176   59  2  -0.48200    -10.077590570700      7.435770118420     -4.046320292040
     177   59  2  -0.48200    -10.533577065200      6.887479526160     -4.883848645780
     178   60  1   0.96400     -9.070222189750     10.393360396400      5.359422515150
     179   60  2  -0.48200     -8.789344888630     10.056694819400      5.027361931910
     180   60  2  -0.48200     -9.351099490870     10.730025973500      5.691483098390
     181   61  1   0.96400    -18.624335738700    -10.819950591000      6.155548646150
     182   61  2  -0.48200    -19.063721109300    -10.774550792200      6.483236537890
     183   61  2  -0.48200    -18.184950368200    -10.865350389800      5.827860754410
     184   62  1   0.96400      1.833184470690     11.286089042700      0.903915657133
     185   62  2  -0.48200      2.374761058350     11.371488400700      0.860306605863
     186   62  2  -0.48200      1.291607883030     11.200689684700      0.947524708403
     187   63  1   0.96400     -6.600913457860     12.195673040000     -2.819799526040
     188   63  2  -0.48200     -6.755063552800     12.697915341400     -2.657040750780
     189   63  2  -0.48200     -6.446763362920     11.693430738600     -2.982558301300
     190   64  1   0.96400     -9.619894313230      3.010149215560    -17.876682890800
     191   64  2  -0.48200     -9.650551504600      2.476728392830    -18.007152667000
     192   64  2  -0.48200     -9.589237121870      3.543570038300    -17.746213114700
     193   65  1   0.96400    -19.386497355600     18.014938958800     18.166210845600
     194   65  2  -0.48200    -19.157216810100     17.545802427300     17.993464366100
     195   65  2  -0.48200    -19.615777901136     18.484075490400     18.338957325200
     196   66  1   0.96400      1.645851154430      2.598197878510      3.792711850820
     197   66  2  -0.48200      1.717533570780      2.770217765570      3.275246113170
     198   66  2  -0.48200      1.574168738090      2.426177991440      4.310177588470
     199   67  1   0.96400     -1.345781475680     18.602783132800     12.696645326100
     200   67  2  -0.48200     -0.912112022071     18.693936930900     13.022408722000
     201   67  2  -0.48200     -1.779450929290     18.511629334600     12.370881930300
     202   68  1   0.96400     -0.409841094841     -4.872642920820     -3.039631499550
     203   68  2  -0.48200     -0.627176206010     -5.291833991540     -3.321667482500
     204   68  2  -0.48200     -0.192505983673     -4.453451850100     -2.757595516590
     205   69  1   0.96400     -8.615420220200     -6.412490589100     -6.227893405080
     206   69  2  -0.48200     -9.029024971080     -6.692671474930     -5.997828672310
     207   69  2  -0.48200     -8.201815469330     -6.132309703260     -6.457958137840
     208   70  1   0.96400      8.765959081690    -16.328304394500    -14.698181558800
     209   70  2  -0.48200      9.113768264320    -16.642607471100    -14.410531861200
     210   70  2  -0.48200      8.418149899060    -16.014001317800    -14.985831256300
     211   71  1   0.96400    -13.062924820800     -1.000074456970    -10.837546492400
     212   71  2  -0.48200    -13.368680518400     -0.556708532507    -10.949081735200
     213   71  2  -0.48200    -12.757169123200     -1.443440381440    -10.726011249500
     214   72  1   0.96400     -2.779000737020    -13.081861671100     -9.272797146260
     215   72  2  -0.48200     -3.261641903650    -13.046423175400     -9.534142927360
     216   72  2  -0.48200     -2.296359570400    -13.117300166800     -9.011451365150
     217   73  1   0.96400     12.472707904100      3.427863702710     -5.804215842480
     218   73  2  -0.48200     11.950542721400      3.384121875180     -5.971339073830
     219   73  2  -0.48200     12.994873086900      3.471605530250     -5.637092611130
     220   74  1   0.96400     -5.889336726200    -15.139579365400    -12.341839812000
     221   74  2  -0.48200     -5.660955786520    -15.170955135600    -12.841197106400
     222   74  2  -0.48200     -6.117717665870    -15.108203595200    -11.842482517700
     223   75  1   0.96400     17.439494163100     -1.423382471040    -13.460459135200
     224   75  2  -0.48200     17.458369018700     -1.057853672750    -13.049932111200
     225   75  2  -0.48200     17.420619307500     -1.788911269340    -13.870986159200
     226   76  1   0.96400    -12.030303966500     14.541332462800    -10.762477232400
     227   76  2  -0.48200    -11.895140268800     14.296884458600    -11.236266160200
     228   76  2  -0.48200    -12.165467664200     14.785780466900    -10.288688304600
     229   77  1   0.96400     12.446272438200      7.245291702950      0.675676726535
     230   77  2  -0.48200     12.921831846600      7.519782332130      0.644083316493
     231   77  2  -0.48200     11.970713029800      6.970801073760      0.707270136578
     232   78  1   0.96400     15.096019318000    -16.207386483000     18.373935844300
     233   78  2  -0.48200     14.605528762600    -16.455968647000     18.385157376900
     234   78  2  -0.48200     15.586509873400    -15.958804319000     18.362714311700
     235   79  1   0.96400    -10.285978372800    -13.139996568600    -15.862429409300
     236   79  2  -0.48200    -10.261013211100    -12.655719676200    -15.602905552700
     237   79  2  -0.48200    -10.310943534500    -13.624273461000    -16.121953266000
     238   80  1   0.96400    -13.934909626100    -17.097920163400     12.685751709500
     239   80  2  -0.48200    -13.704670129800    -16.681478194200     12.961552109600
     240   80  2  -0.48200    -14.165149122400    -17.514362132500     12.409951309400
     241   81  1   0.96400    -18.141693798300     -6.668412332870     13.874367985400
     242   81  2  -0.48200    -17.778407076800     -6.972011689470     13.594456948500
     243   81  2  -0.48200    -18.504980519900     -6.364812976260     14.154279022400
     244   82  1   0.96400     11.290995106400     -8.012818657140     14.323601557100
     245   82  2  -0.48200     11.141257415800     -8.526311586130     14.195524877300
     246   82  2  -0.48200     11.440732797000     -7.499325728150     14.451678236800
     247   83  1   0.96400     11.607082259600     -4.826553353890    -13.756022999200
     248   83  2  -0.48200     12.088078605100     -4.988072449090    -13.968282504400
     249   83  2  -0.48200     11.126085914200     -4.665034258700    -13.543763494100
     250   84  1   0.96400      8.594974316910      8.926128042480     -9.619786753690
     251   84  2  -0.48200      9.114956073840      8.900729887180     -9.797195620910
     252   84  2  -0.48200      8.074992559990      8.951526197790     -9.442377886460
     253   85  1   0.96400     -7.495416685970     18.778949934500     11.832093468000
     254   85  2  -0.48200     -7.295590454310     18.959214344700     11.352432942600
     255   85  2  -0.48200     -7.695242917630     18.598685524400     12.311753993300
     256   86  1   0.96400      0.290216816650     -5.223642541330     12.885380836800
     257   86  2  -0.48200     -0.060568053491     -4.812357822830     12.783917270900
     258   86  2  -0.48200      0.641001686791     -5.634927259830     12.986844402700
     259   87  1   0.96400     -2.956892550870    -14.666461184000      5.451197119290
     260   87  2  -0.48200     -2.582984532860    -14.492315581000      5.087375592970
     261   87  2  -0.48200     -3.330800568880    -14.840606787000      5.815018645620
     262   88  1   0.96400    -14.915928213500     -9.397305466360     14.640070537300
     263   88  2  -0.48200    -14.891656575900     -9.787638783060     15.026788508800
     264   88  2  -0.48200    -14.940199851100     -9.006972149660     14.253352565800
     265   89  1   0.96400      5.977337209360      7.789808178330      8.818775618650
     266   89  2  -0.48200      6.444781011160      7.520113542920      8.712657308310
     267   89  2  -0.48200      5.509893407560      8.059502813740      8.924893928980
     268   90  1   0.96400     12.324487940300      2.949608646400      7.566531093880
     269   90  2  -0.48200     12.220351099900      3.488162862000      7.526345582700
     270   90  2  -0.48200     12.428624780800      2.411054430800      7.606716605070
     271   91  1   0.96400     -8.891743860310    -10.914084464100     -1.632946184270
     272   91  2  -0.48200     -8.463267742450    -11.234970273500     -1.506690437010
     273   91  2  -0.48200     -9.320219978170    -10.593198654600     -1.759201931520
     274   92  1   0.96400     16.757485820800     -8.254728963160     15.574620821000
     275   92  2  -0.48200     16.234479370400     -8.239542617870     15.744130784800
     276   92  2  -0.48200     17.280492271100     -8.269915308450     15.405110857300
     277   93  1   0.96400     -9.467716502900     -9.614569644570     14.338648306500
     278   93  2  -0.48200     -9.579031027660     -9.515143001530     14.868009638000
     279   93  2  -0.48200     -9.356401978150     -9.713996287610     13.809286975100
     280   94  1   0.96400     11.007839873400    -10.441514262900    -10.239066954600
     281   94  2  -0.48200     10.700885772100    -10.683433998400    -10.626047601700
     282   94  2  -0.48200     11.314793974800    -10.199594527400     -9.852086307460
     283   95  1   0.96400    -17.901219107100     -2.598547108000      9.506434798610
     284   95  2  -0.48200    -18.299023426200     -2.773117193330      9.843743276230
     285   95  2  -0.48200    -17.503414788100     -2.423977022680      9.169126320990
     286   96  1   0.96400     17.605087416300     11.400373655800     10.878947655600
     287   96  2  -0.48200     17.955078280600     11.818879991100     10.809242259600
     288   96  2  -0.48200     17.255096552000     10.981867320600     10.948653051600
     289   97  1   0.96400     13.990305921100    -10.318735269800     -4.888492401660
     290   97  2  -0.48200     14.320050809700     -9.944601861390     -4.656560296970
     291   97  2  -0.48200     13.660561032500    -10.692868678100     -5.120424506350
     292   98  1   0.96400     -0.147092582660      6.954483712580     -9.733886344150
     293   98  2  -0.48200      0.243817856729      7.300754057250     -9.561300490790
     294   98  2  -0.48200     -0.538003022048      6.608213367910     -9.906472197510
     295   99  1   0.96400      1.862694036250     11.102076426500    -10.645299129200
     296   99  2  -0.48200      1.630441910090     10.603523745600    -10.643256030000
     297   99  2  -0.48200      2.094946162410     11.600629107500    -10.647342228400
     298  100  1   0.96400     11.533130095200      7.110928754540    -11.617904522500
     299  100  2  -0.48200     11.293666546400      7.030968245450    -12.106538870300
     300  100  2  -0.48200     11.772593643900      7.190889263630    -11.129270174800
     301  101  1   0.96400    -12.354014125500      0.841006939346    -17.813872304300
     302  101  2  -0.48200    -12.611825839600      1.041060756870    -17.371140342300
     303  101  2  -0.48200    -12.096202411400      0.640953121826    -18.256604266200
     304  102  1   0.96400     -7.460901182310      6.358146333950     -5.441519250990
     305  102  2  -0.48200     -7.738337627890      6.648834752930     -5.817057879810
     306  102  2  -0.48200     -7.183464736730      6.067457914980     -5.065980622160
     307  103  1   0.96400     -5.598014265850      9.822832855700      2.754595686540
     308  103  2  -0.48200     -5.807203540230      9.319560002210      2.680729033550
     309  103  2  -0.48200     -5.388824991480     10.326105709200      2.828462339520
     310  104  1   0.96400    -14.183019861500    -19.179993527900     -1.487434556500
     311  104  2  -0.48200    -14.382382287100    -19.437796951336     -1.930483107080
     312  104  2  -0.48200    -13.983657436000    -18.922190104600     -1.044386005910
     313  105  1   0.96400     14.010802073100     16.322377362900     -9.607213321380
     314  105  2  -0.48200     13.954045309100     15.775314780200     -9.608308894570
     315  105  2  -0.48200     14.067558837100     16.869439945700     -9.606117748190
     316  106  1   0.96400    -15.905857712300     11.957888778200     -1.931411443080
     317  106  2  -0.48200    -16.390907703000     11.701166217000     -1.967743702690
     318  106  2  -0.48200    -15.420807721600     12.214611339400     -1.895079183470
     319  107  1   0.96400     -8.255532425180    -12.027460076900     -8.448574653870
     320  107  2  -0.48200     -7.710674486030    -12.102489637900     -8.447949254080
     321  107  2  -0.48200     -8.800390364340    -11.952430516000     -8.449200053670
     322  108  1   0.96400      8.467117901160    -18.899825507800     -1.682479644680
     323  108  2  -0.48200      8.007013582800    -18.743976042400     -1.424574700230
     324  108  2  -0.48200      8.927222219520    -19.055674973200     -1.940384589130
     325  109  1   0.96400    -14.180206337900     14.414228158400     13.438276025000
     326  109  2  -0.48200    -13.911021418100     14.130275317300     13.051739787400
     327  109  2  -0.48200    -14.449391257600     14.698180999500     13.824812262700
     328  110  1   0.96400    -17.957538742800      5.305113631290     -8.286632895470
     329  110  2  -0.48200    -18.254194025800      5.075166754110     -8.688652890950
     330  110  2  -0.48200    -17.660883459800      5.535060508460     -7.884612899990
     331  111  1   0.96400    -12.401159952700      1.069002507160     15.125081822200
     332  111  2  -0.48200    -12.397096801000      1.332666952080     14.642417807300
     333  111  2  -0.48200    -12.405223104500      0.805338062229     15.607745837100
     334  112  1   0.96400    -15.031865982600    -17.703395064800     16.729564092500
     335  112  2  -0.48200    -14.731524396500    -17.280617660500     16.546386042400
     336  112  2  -0.48200    -15.332207568800    -18.126172469100     16.912742142600
     337  113  1   0.96400     18.743866172300    -14.094245228100    -10.023522445100
     338  113  2  -0.48200     18.205101675900    -14.117975531100     -9.915496105080
     339  113  2  -0.48200     19.282630668700    -14.070514925100    -10.131548785100
     340  114  1   0.96400    -18.894186007500     13.424106513900     -6.811097197230