LAMMPS Atom File

         3000 atoms
         2000 bonds
         1000 angles
           0 dihedrals
           0 impropers

           2 atom types
           1 bond types
           1 angle types

         0.0  41.9458352838 xlo xhi
         0.0  41.9458352838 ylo yhi
         0.0  41.9458352838 zlo zhi

Masses

         1    1.0e-20
         2   14.00670

Atoms

       1    1  1   0.96400    -14.442236776300     14.704072254300      4.401458004850
       2    1  2  -0.48200    -14.890888816900     14.961828760000      4.214982992460
       3    1  2  -0.48200    -13.993584735700     14.446315748600      4.587933017240
       4    2  1   0.96400      8.094281239500     -1.322580039130      0.063112509963
       5    2  2  -0.48200      8.214520396660     -1.102393135520     -0.426336437901
       6    2  2  -0.48200      7.974042082330     -1.542766942730      0.552561457828
       7    3  1   0.96400    -14.740912423800     20.113609246100     18.152503913600
       8    3  2  -0.48200    -14.370620074600     20.090359308000     17.746495272700
       9    3  2  -0.48200    -15.111204773100     20.136859184300     18.558512554500
      10    4  1   0.96400     12.983220495100    -17.155466849800     -1.917837371170
      11    4  2  -0.48200     13.033887763300    -17.227302620800     -1.374907863840
      12    4  2  -0.48200     12.932553226800    -17.083631078800     -2.460766878500
      13    5  1   0.96400    -12.768542004000     20.956670946900      0.208497873918
      14    5  2  -0.48200    -12.771343468800     21.162503202165      0.718522612998
      15    5  2  -0.48200    -12.765740539300     20.750838691600     -0.301526865162
      16    6  1   0.96400     -8.958701823520     15.035206245400    -18.570521918800
      17    6  2  -0.48200     -9.156026379570     14.930197380900    -19.073051677100
      18    6  2  -0.48200     -8.761377267460     15.140215109900    -18.067992160500
      19    7  1   0.96400     15.058712565200      1.501667215600      4.437048899460
      20    7  2  -0.48200     14.877383763100      2.019979172890      4.405862677330
      21    7  2  -0.48200     15.240041367300      0.983355258306      4.468235121590
      22    8  1   0.96400      5.795851632430     15.189439982500    -18.169720159800
      23    8  2  -0.48200      6.171713739040     15.091633230900    -17.780282724300
      24    8  2  -0.48200      5.419989525810     15.287246734100    -18.559157595300
      25    9  1   0.96400     12.674031641100     -5.296240143510     19.810547043800
      26    9  2  -0.48200     12.934031345000     -5.434753850980     20.274997371400
      27    9  2  -0.48200     12.414031937300     -5.157726436040     19.346096716100
      28   10  1   0.96400     -4.662790048010     -5.168894031790     -9.684533149210
      29   10  2  -0.48200     -4.123824624400     -5.244276305960     -9.764118228800
      30   10  2  -0.48200     -5.201755471630     -5.093511757620     -9.604948069630
      31   11  1   0.96400    -10.311706588100     -5.239127740750      5.010901906180
      32   11  2  -0.48200    -10.485358232600     -4.896740489040      4.617054123090
      33   11  2  -0.48200    -10.138054943600     -5.581514992460      5.404749689270
      34   12  1   0.96400     -8.414232678730    -16.742289910700     14.893208492000
      35   12  2  -0.48200     -8.242698113330    -17.034383907200     15.326517838800
      36   12  2  -0.48200     -8.585767244130    -16.450195914200     14.459899145100
      37   13  1   0.96400    -16.966978921400     -7.792308089210     13.033404536400
      38   13  2  -0.48200    -16.600160021200     -8.200379496620     13.071108925800
      39   13  2  -0.48200    -17.333797821500     -7.384236681800     12.995700147100
      40   14  1   0.96400     15.458784887000     17.869091334100     17.204828393100
      41   14  2  -0.48200     15.859589354900     18.202232255200     17.029121520000
      42   14  2  -0.48200     15.057980419200     17.535950413100     17.380535266200
      43   15  1   0.96400     10.952314270900     15.131186922700     18.192155802800
      44   15  2  -0.48200     10.754630404900     14.954527947400     18.674040328000
      45   15  2  -0.48200     11.149998136800     15.307845897900     17.710271277600
      46   16  1   0.96400     20.503233688200    -20.352182653300      1.051909509540
      47   16  2  -0.48200     20.292902689500    -20.465741746300      1.547253030120
      48   16  2  -0.48200     20.713564686900    -20.238623560300      0.556565988948
      49   17  1   0.96400     -1.138145655630     -4.026107348490     16.053268133800
      50   17  2  -0.48200     -1.013358118620     -4.283568278930     15.583542746100
      51   17  2  -0.48200     -1.262933192640     -3.768646418060     16.522993521600
      52   18  1   0.96400    -13.361049604700     -3.315720425240    -16.893831066600
      53   18  2  -0.48200    -13.400848770500     -3.818871913270    -16.675302792700
      54   18  2  -0.48200    -13.321250439000     -2.812568937220    -17.112359340600
      55   19  1   0.96400      2.522510855750     -6.103008698640     13.437064550900
      56   19  2  -0.48200      2.146546305960     -6.310212098700     13.780892136100
      57   19  2  -0.48200      2.898475405540     -5.895805298590     13.093236965800
      58   20  1   0.96400     -4.707978844700    -10.837088061700      3.012122381710
      59   20  2  -0.48200     -5.103118724070    -10.896154591200      3.390111298000
      60   20  2  -0.48200     -4.312838965340    -10.778021532300      2.634133465430
      61   21  1   0.96400     -1.083459932820     -7.141841548570     20.147625071600
      62   21  2  -0.48200     -1.294466704930     -6.660848865470     20.310788121700
      63   21  2  -0.48200     -0.872453160718     -7.622834231660     19.984462021400
      64   22  1   0.96400    -15.880902670900      1.709894484900    -16.730963666100
      65   22  2  -0.48200    -15.475918781000      1.870821979770    -16.395418750500
      66   22  2  -0.48200    -16.285886560700      1.548966990040    -17.066508581600
      67   23  1   0.96400    -18.965275353300     17.863057703900      0.596543991276
      68   23  2  -0.48200    -19.276219403400     18.298759190200      0.722948154490
      69   23  2  -0.48200    -18.654331303200     17.427356217500      0.470139828061
      70   24  1   0.96400     -4.339605749660    -12.318888768100     11.845910714200
      71   24  2  -0.48200     -4.230614586190    -11.867754145200     12.141035227500
      72   24  2  -0.48200     -4.448596913130    -12.770023390900     11.550786200800
      73   25  1   0.96400     10.138644594700     -5.271265937190     10.873584443800
      74   25  2  -0.48200      9.733663130850     -4.900020665470     10.899410054800
      75   25  2  -0.48200     10.543626058500     -5.642511208910     10.847758832800
      76   26  1   0.96400     16.369060851800    -15.601634572900     -8.579480705280
      77   26  2  -0.48200     16.305991680000    -15.241012783700     -8.989936798860
      78   26  2  -0.48200     16.432130023500    -15.962256362100     -8.169024611710
      79   27  1   0.96400    -15.176820858000      4.898525372670      7.142029159530
      80   27  2  -0.48200    -14.847144837600      4.634214879730      7.494099727530
      81   27  2  -0.48200    -15.506496878500      5.162835865620      6.789958591540
      82   28  1   0.96400     13.231416228600     -5.789476717040    -18.616349650300
      83   28  2  -0.48200     13.704742731600     -5.566873791450    -18.786378939100
      84   28  2  -0.48200     12.758089725600     -6.012079642620    -18.446320361400
      85   29  1   0.96400    -19.441022560000      4.193780750570    -17.425255137300
      86   29  2  -0.48200    -19.142444705400      4.034522741420    -16.991679133300
      87   29  2  -0.48200    -19.739600414600      4.353038759720    -17.858831141300
      88   30  1   0.96400     15.759525068800    -18.566316438300     11.510093894800
      89   30  2  -0.48200     16.214012389100    -18.836520044700     11.358663096100
      90   30  2  -0.48200     15.305037748500    -18.296112831900     11.661524693500
      91   31  1   0.96400    -12.155879979700     -7.366617599690      7.416994820950
      92   31  2  -0.48200    -12.035765455800     -7.681718800570      7.851487323040
      93   31  2  -0.48200    -12.275994503500     -7.051516398810      6.982502318870
      94   32  1   0.96400     12.382773876400     17.477020433200    -19.558129526300
      95   32  2  -0.48200     12.633298081600     17.565040327600    -20.039783054100
      96   32  2  -0.48200     12.132249671300     17.389000538800    -19.076475998500
      97   33  1   0.96400      6.120528104980     -7.414435597540      6.550168242800
      98   33  2  -0.48200      6.505863229490     -7.099784932170      6.784714188410
      99   33  2  -0.48200      5.735192980470     -7.729086262910      6.315622297190
     100   34  1   0.96400     12.943449220000    -20.217801170100    -19.092013041900
     101   34  2  -0.48200     13.237039301500    -20.080434268200    -18.647676234600
     102   34  2  -0.48200     12.649859138600    -20.355168071900    -19.536349849200
     103   35  1   0.96400     -9.525856119580    -15.933608994200      6.154973683420
     104   35  2  -0.48200     -9.920092172020    -15.569169993600      6.274397926500
     105   35  2  -0.48200     -9.131620067150    -16.298047994800      6.035549440330
     106   36  1   0.96400     -6.168531334130     -8.340038929320     19.557140984500
     107   36  2  -0.48200     -6.266172377190     -7.834779893380     19.363028817700
     108   36  2  -0.48200     -6.070890291060     -8.845297965250     19.751253151400
     109   37  1   0.96400     19.956166838400    -15.629076055600    -15.835940059900
     110   37  2  -0.48200     19.640979163100    -16.019811322900    -15.611256548600
     111   37  2  -0.48200     20.271354513800    -15.238340788400    -16.060623571100
     112   38  1   0.96400      2.510079284490      2.803410709110     -3.624249600920
     113   38  2  -0.48200      2.201401797660      2.633168800930     -4.046429541020
     114   38  2  -0.48200      2.818756771320      2.973652617300     -3.202069660820
     115   39  1   0.96400    -19.244755611500     -4.972917927470    -20.128497247200
     116   39  2  -0.48200    -19.705349239500     -4.775492457220    -20.355161522000
     117   39  2  -0.48200    -18.784161983400     -5.170343397710    -19.901832972300
     118   40  1   0.96400    -12.333802838000     17.823522198300     -4.952496783410
     119   40  2  -0.48200    -12.642352616500     17.386229075000     -4.825722343850
     120   40  2  -0.48200    -12.025253059500     18.260815321500     -5.079271222980
     121   41  1   0.96400     16.163571374800     13.482336788200      0.183490299784
     122   41  2  -0.48200     16.668839875900     13.567414256600     -0.016423597235
     123   41  2  -0.48200     15.658302873800     13.397259319800      0.383404196802
     124   42  1   0.96400    -13.912675111100     -8.542695695050    -18.236487244000
     125   42  2  -0.48200    -13.902082530900     -8.581614257000    -17.687968198900
     126   42  2  -0.48200    -13.923267691200     -8.503777133100    -18.785006289000
     127   43  1   0.96400     -3.393291558060     17.295578289100    -11.115826972400
     128   43  2  -0.48200     -3.253557018120     16.897135665900    -11.468272336200
     129   43  2  -0.48200     -3.533026097990     17.694020912200    -10.763381608700
     130   44  1   0.96400     13.425330159800     11.284507000600      2.809699207470
     131   44  2  -0.48200     13.111928938100     11.659608038800      3.061847745970
     132   44  2  -0.48200     13.738731381400     10.909405962500      2.557550668970
     133   45  1   0.96400     -6.667177050310     -8.331304730240     -5.194667087190
     134   45  2  -0.48200     -6.477116314910     -8.677128612530     -4.811544705570
     135   45  2  -0.48200     -6.857237785710     -7.985480847950     -5.577789468800
     136   46  1   0.96400     -0.233294904257     -4.710374563040    -16.214955154600
     137   46  2  -0.48200     -0.063813376151     -4.663278598140    -16.736067409000
     138   46  2  -0.48200     -0.402776432364     -4.757470527940    -15.693842900200
     139   47  1   0.96400    -15.790341208400     18.676584946600     -8.799679809970
     140   47  2  -0.48200    -15.502616264600     19.025077557100     -8.486203722930
     141   47  2  -0.48200    -16.078066152200     18.328092336100     -9.113155897010
     142   48  1   0.96400     -4.131530944600      2.983975097540      7.711418156140
     143   48  2  -0.48200     -4.495294376100      2.610785022050      7.887217284270
     144   48  2  -0.48200     -3.767767513090      3.357165173030      7.535619028000
     145   49  1   0.96400     18.888682812900      6.441602869840     16.762557576100
     146   49  2  -0.48200     18.388253983500      6.403992459560     16.537487712000
     147   49  2  -0.48200     19.389111642300      6.479213280130     16.987627440200
     148   50  1   0.96400     -0.212440229271     -9.092429392950     -7.657415516930
     149   50  2  -0.48200      0.313790902999     -8.971079042310     -7.761602309900
     150   50  2  -0.48200     -0.738671361540     -9.213779743600     -7.553228723960
     151   51  1   0.96400     -1.092445080060      1.518738649590      1.129249784940
     152   51  2  -0.48200     -1.447370128110      1.741230761920      0.772843457526
     153   51  2  -0.48200     -0.737520032014      1.296246537270      1.485656112360
     154   52  1   0.96400     -5.366927649390    -11.539196524500     -3.020141334440
     155   52  2  -0.48200     -5.237140682290    -11.700086073800     -3.529817600410
     156   52  2  -0.48200     -5.496714616500    -11.378306975200     -2.510465068480
     157   53  1   0.96400     16.473256904200    -12.689715702500    -16.989867663300
     158   53  2  -0.48200     16.725713588300    -12.202047418500    -17.020612864900
     159   53  2  -0.48200     16.220800220200    -13.177383986500    -16.959122461600
     160   54  1   0.96400     -3.028337438840     -1.543647100440     -7.855666918080
     161   54  2  -0.48200     -2.808829297310     -1.237827365250     -7.454680053750
     162   54  2  -0.48200     -3.247845580380     -1.849466835630     -8.256653782410
     163   55  1   0.96400     -6.666336646150     10.198736214300      4.132457110030
     164   55  2  -0.48200     -7.108873654080     10.283754121600      4.447787019890
     165   55  2  -0.48200     -6.223799638220     10.113718307000      3.817127200180
     166   56  1   0.96400      7.795388595230      9.564557616800      0.969634299128
     167   56  2  -0.48200      7.307771457060      9.818962599140      0.966871777351
     168   56  2  -0.48200      8.283005733390      9.310152634450      0.972396820906
     169   57  1   0.96400     -9.091229215520     20.498527993000      0.898030423919
     170   57  2  -0.48200     -8.592552221140     20.682661830700      1.039154430030
     171   57  2  -0.48200     -9.589906209900     20.314394155400      0.756906417803
     172   58  1   0.96400     -9.904865373200      4.363932994970    -20.881758500900
     173   58  2  -0.48200    -10.197401146500      4.580488813320    -20.469415926200
     174   58  2  -0.48200     -9.612329599920      4.147377176630    -21.294101075565
     175   59  1   0.96400     18.455138604300     20.680727768100     19.035979151100
     176   59  2  -0.48200     18.622648022900     20.770406160100     18.519841203700
     177   59  2  -0.48200     18.287629185700     20.591049376100     19.552117098400
     178   60  1   0.96400      1.682867582000      3.566168882530      4.160897446240
     179   60  2  -0.48200      2.090976266450      3.567205385340      4.529606311530
     180   60  2  -0.48200      1.274758897560      3.565132379710      3.792188580950
     181   61  1   0.96400     -1.596318839070     15.541701795100     15.144145387300
     182   61  2  -0.48200     -1.665546863570     15.014561503900     15.003324245200
     183   61  2  -0.48200     -1.527090814580     16.068842086200     15.284966529400
     184   62  1   0.96400     11.955596816200     -3.047625555050     17.193633788300
     185   62  2  -0.48200     12.230741147900     -2.571746420380     17.211927117600
     186   62  2  -0.48200     11.680452484500     -3.523504689730     17.175340459100
     187   63  1   0.96400    -12.459062075700     -2.663486620220     -5.989144290660
     188   63  2  -0.48200    -12.683904755800     -2.585522370420     -5.493294167200
     189   63  2  -0.48200    -12.234219395500     -2.741450870020     -6.484994414120
     190   64  1   0.96400      8.805568881130    -17.185226396800    -18.178190813200
     191   64  2  -0.48200      9.182069893340    -16.800951420800    -18.292557463300
     192   64  2  -0.48200      8.429067868920    -17.569501372800    -18.063824163200
     193   65  1   0.96400    -10.104724005800      6.343454645460    -14.921223499200
     194   65  2  -0.48200    -10.217231910500      6.881778847720    -14.928225260100
     195   65  2  -0.48200     -9.992216101130      5.805130443210    -14.914221738400
     196   66  1   0.96400     -3.797839328870    -14.922752481200     -5.099375195870
     197   66  2  -0.48200     -4.221202505770    -15.177296395000     -4.857567387100
     198   66  2  -0.48200     -3.374476151980    -14.668208567300     -5.341183004640
     199   67  1   0.96400     13.126080180100      1.363930467250     -5.511658733140
     200   67  2  -0.48200     12.974753762900      1.875665036620     -5.644805441650
     201   67  2  -0.48200     13.277406597200      0.852195897879     -5.378512024640
     202   68  1   0.96400     -6.755681604010    -15.295655198700    -14.620083117600
     203   68  2  -0.48200     -6.313832678580    -15.196786006500    -14.307842169100
     204   68  2  -0.48200     -7.197530529450    -15.394524390800    -14.932324066100
     205   69  1   0.96400     16.768957319100     -0.481038725913    -18.560105225800
     206   69  2  -0.48200     17.202626772700     -0.389884927763    -18.234341829900
     207   69  2  -0.48200     16.335287865500     -0.572192524063    -18.885868621700
     208   70  1   0.96400    -11.124379956500     14.950273964400    -12.440857831000
     209   70  2  -0.48200    -10.611270080700     14.786919488600    -12.328904400600
     210   70  2  -0.48200    -11.637489832300     15.113628440300    -12.552811261400
     211   71  1   0.96400     17.969836753400      8.071821361930      0.649299772130
     212   71  2  -0.48200     18.211367890700      7.758120348010      0.267521847671
     213   71  2  -0.48200     17.728305616200      8.385522375840      1.031077696590
     214   72  1   0.96400     17.094426672600    -17.049937530900     18.038694363000
     215   72  2  -0.48200     17.034605005200    -16.626576617400     18.384652315700
     216   72  2  -0.48200     17.154248340000    -17.473298444400     17.692736410300
     217   73  1   0.96400    -14.586971887600    -16.951393759300     12.240046569500
     218   73  2  -0.48200    -14.893089773500    -16.544900156500     12.448744415400
     219   73  2  -0.48200    -14.280854001800    -17.357887362100     12.031348723700
     220   74  1   0.96400    -20.645637789200     -6.358913965430     15.040174003600
     221   74  2  -0.48200    -20.701150369300     -6.811973485290     15.347021563400
     222   74  2  -0.48200    -20.590125209100     -5.905854445560     14.733326443900
     223   75  1   0.96400     11.217718364800     -6.767874131910    -13.306254887000
     224   75  2  -0.48200     11.569686843900     -6.491889523740    -13.626334073700
     225   75  2  -0.48200     10.865749885800     -7.043858740070    -12.986175700200
     226   76  1   0.96400      1.529566572480      7.646798252080     -9.340463301570
     227   76  2  -0.48200      1.556668455000      7.402303619820     -8.848540682900
     228   76  2  -0.48200      1.502464689960      7.891292884340     -9.832385920240
     229   77  1   0.96400     18.609600170400      1.244243165140     18.442687221100
     230   77  2  -0.48200     18.908129361700      0.899888782590     18.134790515800
     231   77  2  -0.48200     18.311070979000      1.588597547680     18.750583926400
     232   78  1   0.96400     -7.863441055270     20.359332588500     12.343494002400
     233   78  2  -0.48200     -7.513391255590     20.482413141500     11.937518245500
     234   78  2  -0.48200     -8.213490854940     20.236252035400     12.749469759400
     235   79  1   0.96400      2.568749810430    -10.703717230300     13.193947893700
     236   79  2  -0.48200      3.024843813930    -11.006956605300     13.244188728200
     237   79  2  -0.48200      2.112655806920    -10.400477855400     13.143707059300
     238   80  1   0.96400    -10.931588045900     -0.113486588757      7.813153007090
     239   80  2  -0.48200    -11.293107482900      0.234464886903      8.038393916420
     240   80  2  -0.48200    -10.570068608900     -0.461438064417      7.587912097760
     241   81  1   0.96400     -0.458168255919    -14.289788581000      8.245471090320
     242   81  2  -0.48200      0.084763791343    -14.373307416500      8.218095989100
     243   81  2  -0.48200     -1.001100303180    -14.206269745500      8.272846191540
     244   82  1   0.96400    -20.257625234100    -13.408539439800     16.923477316300
     245   82  2  -0.48200    -20.566713665700    -13.543773148900     17.357846036800
     246   82  2  -0.48200    -19.948536802500    -13.273305730600     16.489108595800
     247   83  1   0.96400      5.200730208080      7.265201090340     10.569584108400
     248   83  2  -0.48200      4.923312090460      7.453596651950     10.133641107100
     249   83  2  -0.48200      5.478148325690      7.076805528720     11.005527109700
     250   84  1   0.96400     12.888039152200      8.047295171230      3.824870382830
     251   84  2  -0.48200     12.536883446200      8.119782255870      4.241925885990
     252   84  2  -0.48200     13.239194858200      7.974808086590      3.407814879680
     253   85  1   0.96400    -11.748327035400     -7.520879317310     -2.032128629800
     254   85  2  -0.48200    -11.506906134100     -7.289910157640     -1.595242837310
     255   85  2  -0.48200    -11.989747936700     -7.751848476990     -2.469014422280
     256   86  1   0.96400     15.129401506900     -7.123915657690     17.944344023900
     257   86  2  -0.48200     15.350369204200     -6.631226699240     17.839793237400
     258   86  2  -0.48200     14.908433809500     -7.616604616130     18.048894810500
     259   87  1   0.96400    -10.903654765700     -9.581903706590     17.003664952000
     260   87  2  -0.48200    -10.529746747600     -9.407758103580     16.639843425700
     261   87  2  -0.48200    -11.277562783700     -9.756049309600     17.367486478400
     262   88  1   0.96400     13.315139667000     -9.256415800010     -8.253574482530
     263   88  2  -0.48200     13.863537621900     -9.219089460710     -8.234432186350
     264   88  2  -0.48200     12.766741712200     -9.293742139320     -8.272716778710
     265   89  1   0.96400     20.346393066900     -9.903004164590     19.399911057800
     266   89  2  -0.48200     20.573085237300    -10.100149689500     18.939211262000
     267   89  2  -0.48200     20.119700896600     -9.705858639640     19.860610853600
     268   90  1   0.96400    -19.511715134600     -4.611522739350     11.251176772200
     269   90  2  -0.48200    -19.590595303400     -4.242709744760     10.850858281500
     270   90  2  -0.48200    -19.432834965700     -4.980335733930     11.651495262900
     271   91  1   0.96400    -16.786918920900     16.867085356600     10.026601184200
     272   91  2  -0.48200    -16.447920281300     16.569667373600     10.341438389400
     273   91  2  -0.48200    -17.125917560400     17.164503339500      9.711763979000
     274   92  1   0.96400     13.043634668600     -9.353023728160     -2.852495995650
     275   92  2  -0.48200     12.523863017800     -9.398187258000     -2.678433688890
     276   92  2  -0.48200     13.563406319300     -9.307860198330     -3.026558302420
     277   93  1   0.96400      0.478924749946      4.193587804680    -12.579263145000
     278   93  2  -0.48200      0.801112852901      4.623541645630    -12.696883385400
     279   93  2  -0.48200      0.156736646991      3.763633963720    -12.461642904600
     280   94  1   0.96400     -2.461549336130     13.451467949200    -11.778048204700
     281   94  2  -0.48200     -2.634175520220     12.932708346200    -11.837953753400
     282   94  2  -0.48200     -2.288923152050     13.970227552300    -11.718142655900
     283   95  1   0.96400      9.564183383050      7.217163727830    -16.580234565100
     284   95  2  -0.48200      9.943137202820      7.000695887280    -16.245517256800
     285   95  2  -0.48200      9.185229563290      7.433631568390    -16.914951873500
     286   96  1   0.96400    -14.109402979000      1.405165384020    -19.978542415200
     287   96  2  -0.48200    -14.424920752500      1.666593264900    -19.611658240300
     288   96  2  -0.48200    -13.793885205600      1.143737503140    -20.345426590000
     289   97  1   0.96400     -8.936720925360      6.061814081860     -5.241657196570
     290   97  2  -0.48200     -8.436030727880      6.043143708070     -5.014807591580
     291   97  2  -0.48200     -9.437411122850      6.080484455640     -5.468506801550
     292   98  1   0.96400     -2.660461104350     13.368258729200     -2.344439874790
     293   98  2  -0.48200     -2.986387167320     13.134880081700     -2.721012056930
     294   98  2  -0.48200     -2.334535041380     13.601637376700     -1.967867692650
     295   99  1   0.96400    -15.052052726000     20.033593223900     -4.504759955410
     296   99  2  -0.48200    -15.243027357200     19.951226639500     -3.995599434540
     297   99  2  -0.48200    -14.861078094800     20.115959808400     -5.013920476280
     298  100  1   0.96400     14.416266398800     13.795257681100     -9.035531676000
     299  100  2  -0.48200     14.662570853800     13.686507989100     -8.555940579420
     300  100  2  -0.48200     14.169961943800     13.904007373200     -9.515122772580
     301  101  1   0.96400    -18.004740552000     13.820373258100     -0.376540961615
     302  101  2  -0.48200    -18.070160262700     14.236486063100     -0.022888031577
     303  101  2  -0.48200    -17.939320841200     13.404260453000     -0.730193891653
     304  102  1   0.96400    -13.762391183600    -14.424341543100    -10.779018352600
     305  102  2  -0.48200    -13.769184498200    -14.619920728900    -10.265011900400
     306  102  2  -0.48200    -13.755597869100    -14.228762357200    -11.293024804800
     307  103  1   0.96400      6.664393991650     18.291940053300      2.043072248770
     308  103  2  -0.48200      6.357476396340     18.669753859600      1.787028663650
     309  103  2  -0.48200      6.971311586960     17.914126247100      2.299115833890
     310  104  1   0.96400    -15.867943707300     16.985467525900     17.154565155300
     311  104  2  -0.48200    -15.525547201700     17.281186391300     16.841811281400
     312  104  2  -0.48200    -16.210340212900     16.689748660500     17.467319029200
     313  105  1   0.96400    -16.565244265900      6.710781398470     -9.978592505830
     314  105  2  -0.48200    -16.641634599700      6.201763399810    -10.172409930100
     315  105  2  -0.48200    -16.488853932100      7.219799397140     -9.784775081590
     316  106  1   0.96400     -9.643394925320     -1.367740005250     16.515623612000
     317  106  2  -0.48200     -9.217594385800     -1.432025672100     16.173481458000
     318  106  2  -0.48200    -10.069195464800     -1.303454338390     16.857765766100
     319  107  1   0.96400    -17.593559330300    -16.643708370100     17.791059775100
     320  107  2  -0.48200    -17.515008688100    -16.099848653500     17.814435088400
     321  107  2  -0.48200    -17.672109972500    -17.187568086700     17.767684461800
     322  108  1   0.96400     11.350511526300    -11.021275011800    -18.453791213600
     323  108  2  -0.48200     11.413679558200    -10.479100566500    -18.386288098000
     324  108  2  -0.48200     11.287343494400    -11.563449457100    -18.521294329200
     325  109  1   0.96400     -4.074648122670    -15.396525407300      0.940214110784
     326  109  2  -0.48200     -4.141608405950    -15.310625208300      0.401106073121
     327  109  2  -0.48200     -4.007687839380    -15.482425606300      1.479322148450
     328  110  1   0.96400     19.959399812600      2.973808944530      8.364320839690
     329  110  2  -0.48200     20.376441432800      3.019815255440      8.008709104220
     330  110  2  -0.48200     19.542358192500      2.927802633620      8.719932575150
     331  111  1   0.96400    -15.543633491000     -5.455091146110     18.633570036900
     332  111  2  -0.48200    -15.167133464400     -5.329738371950     19.014403874600
     333  111  2  -0.48200    -15.920133517700     -5.580443920270     18.252736199200
     334  112  1   0.96400     -5.241790829150     10.022413966500     -6.803132650610
     335  112  2  -0.48200     -5.106400952360     10.545566956300     -6.905507113060
     336  112  2  -0.48200     -5.377180705950      9.499260976760     -6.700758188150
     337  113  1   0.96400      4.896301520240      2.843260670260     10.813684896100
     338  113  2  -0.48200      5.422325847700      2.870242950570     10.972021131600
     339  113  2  -0.48200      4.370277192770      2.816278389960     10.655348660600
     340  114  1   0.96400     -7.572677299300     18.452272402600    -15.507004967200