LAMMPS Atom File

         3000 atoms
         2000 bonds
         1000 angles
           0 dihedrals
           0 impropers

           2 atom types
           1 bond types
           1 angle types

         0.0  118.417626791 xlo xhi
         0.0  118.417626791 ylo yhi
         0.0  118.417626791 zlo zhi

Masses

         1    1.0e-20
         2   14.00670

Atoms

       1    1  1   0.96400    -37.002323774100     46.872179912700     11.215122878700
       2    1  2  -0.48200    -36.941361248600     47.102165696900     11.710995956800
       3    1  2  -0.48200    -37.063286299600     46.642194128500     10.719249800700
       4    2  1   0.96400     32.538735282600     -0.702425197036      4.093645311810
       5    2  2  -0.48200     32.468869875700     -1.098362831130      4.468948142630
       6    2  2  -0.48200     32.608600689500     -0.306487562941      3.718342480980
       7    3  1   0.96400    -40.375337717900     56.054314218300     53.802365075100
       8    3  2  -0.48200    -40.211344613800     56.103786401000     54.325011002100
       9    3  2  -0.48200    -40.539330821900     56.004842035600     53.279719148100
      10    4  1   0.96400     32.929205752900    -50.011969383500    -11.395368558800
      11    4  2  -0.48200     32.932855117800    -49.471924020200    -11.499472774600
      12    4  2  -0.48200     32.925556388000    -50.552014746700    -11.291264343100
      13    5  1   0.96400    -17.439305363100    -58.234321219300      8.871935678010
      14    5  2  -0.48200    -17.641297745300    -57.889349258300      9.249683508830
      15    5  2  -0.48200    -17.237312980900    -58.579293180200      8.494187847190
      16    6  1   0.96400    -15.849309213600     56.643104228000    -57.762602573000
      17    6  2  -0.48200    -15.627058470200     57.000631797100    -58.116549807000
      18    6  2  -0.48200    -16.071559957000     56.285576658900    -57.408655339100
      19    7  1   0.96400     43.137198748200     13.809589680000     -3.056188669360
      20    7  2  -0.48200     42.952337890000     13.696754800800     -2.550624872060
      21    7  2  -0.48200     43.322059606400     13.922424559200     -3.561752466660
      22    8  1   0.96400     47.820493888700    -16.270191442700     18.930777400700
      23    8  2  -0.48200     47.724911892100    -16.396491229500     19.457476979000
      24    8  2  -0.48200     47.916075885300    -16.143891655800     18.404077822400
      25    9  1   0.96400     22.265848497300     35.770279781700    -50.525994094300
      26    9  2  -0.48200     21.858615458700     35.449369121900    -50.342479515200
      27    9  2  -0.48200     22.673081535800     36.091190441400    -50.709508673400
      28   10  1   0.96400     32.894231673100    -11.565436191800     56.350309898000
      29   10  2  -0.48200     32.601505729100    -11.274580549300     56.713923039800
      30   10  2  -0.48200     33.186957617200    -11.856291834200     55.986696756100
      31   11  1   0.96400      2.045989029850    -18.039700061400    -43.040301062700
      32   11  2  -0.48200      1.711234487290    -18.315878897000    -42.702418469200
      33   11  2  -0.48200      2.380743572420    -17.763521225800    -43.378183656200
      34   12  1   0.96400    -27.500927760400    -15.191786954500     20.037139136400
      35   12  2  -0.48200    -27.140481887200    -15.598298448900     20.122738070400
      36   12  2  -0.48200    -27.861373633500    -14.785275460200     19.951540202300
      37   13  1   0.96400    -32.860691362900    -44.015636538900     39.284102679800
      38   13  2  -0.48200    -32.815585780700    -44.222912780700     38.776656085500
      39   13  2  -0.48200    -32.905796945100    -43.808360297000     39.791549274000
      40   14  1   0.96400    -37.640064501800    -23.108357749600     38.341058088800
      41   14  2  -0.48200    -37.671063035100    -23.043137662600     38.886296964100
      42   14  2  -0.48200    -37.609065968400    -23.173577836700     37.795819213400
      43   15  1   0.96400     44.764610824900     47.776910424400    -58.439541363400
      44   15  2  -0.48200     45.146296883800     48.030725686800    -58.135578265400
      45   15  2  -0.48200     44.382924765900     47.523095161900    -58.743504461300
      46   16  1   0.96400     24.937226548800     47.465452687000     49.249673144900
      47   16  2  -0.48200     24.496929003400     47.401734873900     49.573058536900
      48   16  2  -0.48200     25.377524094200     47.529170500000     48.926287752800
      49   17  1   0.96400    -51.714388272200     58.242360057000     13.166108060600
      50   17  2  -0.48200    -52.017694759200     58.692434439800     13.255204776800
      51   17  2  -0.48200    -51.411081785200     57.792285674100     13.077011344300
      52   18  1   0.96400    -25.382826629100    -15.848574852100     27.538455876400
      53   18  2  -0.48200    -25.422625794800    -16.351726340100     27.756984150300
      54   18  2  -0.48200    -25.343027463300    -15.345423364000     27.319927602500
      55   19  1   0.96400     -7.685774820060     -4.464459403400     34.349394811300
      56   19  2  -0.48200     -8.084046930420     -4.627335755850     34.006830043900
      57   19  2  -0.48200     -7.287502709710     -4.301583050940     34.691959578800
      58   20  1   0.96400    -38.913524743100    -12.639310351000    -43.856108353600
      59   20  2  -0.48200    -38.718603303900    -12.132343631500    -43.942655322900
      60   20  2  -0.48200    -39.108446182300    -13.146277070500    -43.769561384400
      61   21  1   0.96400     13.425096194200    -25.380236964600     47.483376565400
      62   21  2  -0.48200     13.303854247100    -25.757815036700     47.864473914800
      63   21  2  -0.48200     13.546338141400    -25.002658892500     47.102279216000
      64   22  1   0.96400    -20.366962234200    -26.809784972700     13.311095910300
      65   22  2  -0.48200    -19.919174382400    -27.071649070100     13.493888783000
      66   22  2  -0.48200    -20.814750085900    -26.547920875300     13.128303037600
      67   23  1   0.96400     -8.031049860950    -12.750625426500     56.634233962100
      68   23  2  -0.48200     -7.715464512530    -12.582954376400     56.216152263400
      69   23  2  -0.48200     -8.346635209360    -12.918296476600     57.052315660900
      70   24  1   0.96400    -46.042712843700     10.550674627200    -41.300876399400
      71   24  2  -0.48200    -46.183988549600     10.369214935500    -41.800489805200
      72   24  2  -0.48200    -45.901437137700     10.732134318800    -40.801262993700
      73   25  1   0.96400    -54.152613243300     54.809635879000      4.769975754250
      74   25  2  -0.48200    -54.025441535900     54.320938634800      4.552025392220
      75   25  2  -0.48200    -54.279784950700     55.298333123300      4.987926116280
      76   26  1   0.96400    -24.728108476500     54.635374182300     -4.021669202240
      77   26  2  -0.48200    -24.569292488300     54.580022808000     -3.498015015540
      78   26  2  -0.48200    -24.886924464700     54.690725556600     -4.545323388930
      79   27  1   0.96400    -16.742019797500    -34.791055038900     32.475574506400
      80   27  2  -0.48200    -16.855819283700    -35.328931982700     32.460144979800
      81   27  2  -0.48200    -16.628220311400    -34.253178095100     32.491004032900
      82   28  1   0.96400     28.785378461900    -11.731650051900     29.498888939200
      83   28  2  -0.48200     28.778298862400    -11.706154734100     28.949525791500
      84   28  2  -0.48200     28.792458061400    -11.757145369800     30.048252086800
      85   29  1   0.96400     52.860595958500    -43.970233965900    -28.755745530600
      86   29  2  -0.48200     52.980710482300    -44.285335166700    -28.321253028500
      87   29  2  -0.48200     52.740481434700    -43.655132765000    -29.190238032700
      88   30  1   0.96400    -35.660112909400      7.251190207540     18.613071956800
      89   30  2  -0.48200    -35.483728397700      7.725123122700     18.829349778100
      90   30  2  -0.48200    -35.836497421000      6.777257292380     18.396794135500
      91   31  1   0.96400    -58.917819566600     19.397299084200    -43.363603794700
      92   31  2  -0.48200    -59.323789445696     19.723373362100    -43.186504888500
      93   31  2  -0.48200    -58.511849687600     19.071224806300    -43.540702700900
      94   32  1   0.96400     36.771849869200    -58.586442407100     22.499259498100
      95   32  2  -0.48200     36.592242746700    -58.138232346300     22.762601524500
      96   32  2  -0.48200     36.951456991800    -59.034652468000     22.235917471700
      97   33  1   0.96400    -38.943852974700    -13.670307990300     21.502880844300
      98   33  2  -0.48200    -39.222841285500    -13.211975976500     21.382061609200
      99   33  2  -0.48200    -38.664864663900    -14.128640004000     21.623700079400
     100   34  1   0.96400     32.444114833300     39.718815986100     56.814510879600
     101   34  2  -0.48200     31.927797070600     39.538680030400     56.755629597900
     102   34  2  -0.48200     32.960432596000     39.898951941900     56.873392161300
     103   35  1   0.96400     21.402635423100    -22.781477002100     30.883940101700
     104   35  2  -0.48200     21.840401903200    -22.945534417900     31.173673898900
     105   35  2  -0.48200     20.964868943000    -22.617419586400     30.594206304600
     106   36  1   0.96400     39.370397665900    -55.234723387300    -51.530552236700
     107   36  2  -0.48200     39.900799741300    -55.100652713600    -51.587109224500
     108   36  2  -0.48200     38.839995590500    -55.368794061100    -51.473995248900
     109   37  1   0.96400    -28.032716209000    -43.117597285700     12.408979253000
     110   37  2  -0.48200    -27.905296007400    -43.643139342500     12.308631663500
     111   37  2  -0.48200    -28.160136410600    -42.592055228800     12.509326842500
     112   38  1   0.96400    -15.156474576800    -22.790678301400     53.904928098000
     113   38  2  -0.48200    -14.924864462800    -23.206818049100     53.629820000300
     114   38  2  -0.48200    -15.388084690800    -22.374538553700     54.180036195800
     115   39  1   0.96400     48.155337401600    -35.660768539200    -41.977227495400
     116   39  2  -0.48200     47.841793423000    -36.105952799000    -42.054694574400
     117   39  2  -0.48200     48.468881380200    -35.215584279400    -41.899760416500
     118   40  1   0.96400      4.587697485750     45.631506802300     53.575982382200
     119   40  2  -0.48200      4.645502825870     45.269534216100     53.165940446000
     120   40  2  -0.48200      4.529892145630     45.993479388600     53.986024318400
     121   41  1   0.96400    -36.521830565000     48.326607990300    -11.076457264400
     122   41  2  -0.48200    -36.516992393700     48.132972222800    -10.561693452900
     123   41  2  -0.48200    -36.526668736300     48.520243757700    -11.591221076000
     124   42  1   0.96400     45.055874111400     29.389805718500     11.157039554000
     125   42  2  -0.48200     44.789741056100     29.645841824400     10.749462924000
     126   42  2  -0.48200     45.322007166800     29.133769612600     11.564616184000
     127   43  1   0.96400    -38.788170734500    -24.996090782000    -52.574135488000
     128   43  2  -0.48200    -38.443143402600    -25.226016531300    -52.935508273500
     129   43  2  -0.48200    -39.133198066400    -24.766165032700    -52.212762702600
     130   44  1   0.96400    -12.407232015000     47.375084703400    -15.360047183400
     131   44  2  -0.48200    -12.456737224300     47.346188238400    -15.907051962700
     132   44  2  -0.48200    -12.357726805800     47.403981168400    -14.813042404100
     133   45  1   0.96400     36.545916389500     31.459634820100      7.269127302880
     134   45  2  -0.48200     36.489119256700     31.866246329800      7.635107037110
     135   45  2  -0.48200     36.602713522300     31.053023310300      6.903147568660
     136   46  1   0.96400    -14.115833093200    -17.606613091900    -27.817761500300
     137   46  2  -0.48200    -14.643194236200    -17.460852654700    -27.761689049300
     138   46  2  -0.48200    -13.588471950100    -17.752373529100    -27.873833951300
     139   47  1   0.96400     -0.908062475348     -3.047404292270    -42.370904636200
     140   47  2  -0.48200     -0.698076573075     -2.642276709260    -42.677951151100
     141   47  2  -0.48200     -1.118048377620     -3.452531875280    -42.063858121300
     142   48  1   0.96400    -40.518030467600     54.149314899800    -20.033925365500
     143   48  2  -0.48200    -40.460420101600     54.648121422700    -19.809485844800
     144   48  2  -0.48200    -40.575640833600     53.650508376900    -20.258364886200
     145   49  1   0.96400     54.053950424300      8.839952582940     51.284340735000
     146   49  2  -0.48200     53.763922855900      8.594771982950     51.682172964700
     147   49  2  -0.48200     54.343977992700      9.085133182930     50.886508505400
     148   50  1   0.96400      1.471708170650    -34.804852965200    -16.997381779000
     149   50  2  -0.48200      1.142670837930    -34.410422417000    -16.800762918400
     150   50  2  -0.48200      1.800745503360    -35.199283513400    -17.194000639600
     151   51  1   0.96400     -9.877406756860      7.528958622070     -4.198832444870
     152   51  2  -0.48200     -9.741836404790      7.176902821280     -4.599054124400
     153   51  2  -0.48200    -10.012977108900      7.881014422870     -3.798610765340
     154   52  1   0.96400     -8.185857225960    -37.336949213400    -13.135662363300
     155   52  2  -0.48200     -8.617769278470    -37.499217376500    -13.435030067200
     156   52  2  -0.48200     -7.753945173460    -37.174681050400    -12.836294659400
     157   53  1   0.96400     54.455818043100    -28.817835200700    -46.966186418800
     158   53  2  -0.48200     54.219121325600    -29.027481154700    -47.416212238000
     159   53  2  -0.48200     54.692514760700    -28.608189246700    -46.516160599700
     160   54  1   0.96400    -22.016355296600     -6.672140554310    -17.401647149500
     161   54  2  -0.48200    -22.260891583100     -6.241465761260    -17.162437561100
     162   54  2  -0.48200    -21.771819010000     -7.102815347370    -17.640856737900
     163   55  1   0.96400    -30.343718909200     10.426547166900    -29.417539182500
     164   55  2  -0.48200    -30.629262813800     10.354457246100    -28.953031139700
     165   55  2  -0.48200    -30.058175004500     10.498637087800    -29.882047225300
     166   56  1   0.96400     -9.110903563150     28.305690284900     18.166237191200
     167   56  2  -0.48200     -9.294643860170     27.830221605700     18.372802043700
     168   56  2  -0.48200     -8.927163266140     28.781158964200     17.959672338700
     169   57  1   0.96400     56.837054429900    -39.200306826300     15.458994899500
     170   57  2  -0.48200     57.083902482500    -38.917897296300     15.056737648100
     171   57  2  -0.48200     56.590206377300    -39.482716356300     15.861252150900
     172   58  1   0.96400     10.280109108200     22.986599809300     -9.366724728970
     173   58  2  -0.48200     10.795719116400     22.795221642100     -9.362173187110
     174   58  2  -0.48200      9.764499099970     23.177977976600     -9.371276270840
     175   59  1   0.96400    -29.260154983500     40.763899896300     -1.727004369340
     176   59  2  -0.48200    -29.493148262000     40.896491405400     -2.207247665900
     177   59  2  -0.48200    -29.027161705000     40.631308387300     -1.246761072770
     178   60  1   0.96400    -27.928361821500      8.589329367220    -54.239728371600
     179   60  2  -0.48200    -28.425701789100      8.390859327110    -54.365277564300
     180   60  2  -0.48200    -27.431021853900      8.787799407330    -54.114179178800
     181   61  1   0.96400     51.444498995500     57.972062828900     53.859979162800
     182   61  2  -0.48200     51.151253763300     57.576543097800     53.614884535900
     183   61  2  -0.48200     51.737744227700     58.367582559900     54.105073789700
     184   62  1   0.96400     11.047242542200      3.594694258560      9.507959573130
     185   62  2  -0.48200     10.663155349400      3.411118063520      9.159711372970
     186   62  2  -0.48200     11.431329735000      3.778270453600      9.856207773290
     187   63  1   0.96400     -3.586681686420     49.115247627700     36.262768675800
     188   63  2  -0.48200     -3.424757205510     49.076770926600     36.786982378400
     189   63  2  -0.48200     -3.748606167320     49.153724328700     35.738554973200
     190   64  1   0.96400      4.491347917150    -12.207208192900    -14.482783302900
     191   64  2  -0.48200      4.537337721720    -12.647896881200    -14.156933003100
     192   64  2  -0.48200      4.445358112580    -11.766519504600    -14.808633602800
     193   65  1   0.96400     37.401422549500     -7.602911044890     45.001710397400
     194   65  2  -0.48200     37.335076866900     -7.426077418210     45.518264478700
     195   65  2  -0.48200     37.467768232100     -7.779744671570     44.485156316100
     196   66  1   0.96400    -33.503495612700      2.919943518240    -20.074433006700
     197   66  2  -0.48200    -33.439164806500      2.685731875360    -19.580969275800
     198   66  2  -0.48200    -33.567826418900      3.154155161110    -20.567896737600
     199   67  1   0.96400     25.405922913600    -47.190186649400    -48.190054627800
     200   67  2  -0.48200     25.121345556200    -46.895358681800    -48.556922720100
     201   67  2  -0.48200     25.690500271100    -47.485014617100    -47.823186535500
     202   68  1   0.96400    -28.092303651400      9.422613184630    -37.672185854800
     203   68  2  -0.48200    -27.622049869800      9.422783027230    -37.386946740900
     204   68  2  -0.48200    -28.562557432900      9.422443342030    -37.957424968700
     205   69  1   0.96400     -6.950365118300    -46.684561070300    -24.917693775100
     206   69  2  -0.48200     -7.210603489210    -46.812178253100    -24.450264802000
     207   69  2  -0.48200     -6.690126747390    -46.556943887400    -25.385122748300
     208   70  1   0.96400     41.662996590400      8.335680385820    -26.188226428900
     209   70  2  -0.48200     41.609567930700      8.691681200490    -25.772403391700
     210   70  2  -0.48200     41.716425250100      7.979679571140    -26.604049466100
     211   71  1   0.96400    -22.742025744800    -53.831700577900      3.340976350630
     212   71  2  -0.48200    -22.532683581200    -54.054569102100      2.883805179770
     213   71  2  -0.48200    -22.951367908300    -53.608832053600      3.798147521480
     214   72  1   0.96400     56.219589865300     -5.227818077230    -52.661161626000
     215   72  2  -0.48200     55.823806860800     -5.016442714590    -52.979243799900
     216   72  2  -0.48200     56.615372869900     -5.439193439870    -52.343079452100
     217   73  1   0.96400    -33.988704207900     41.007308128000    -24.011361956700
     218   73  2  -0.48200    -34.174565207100     40.499188061200    -24.110203681900
     219   73  2  -0.48200    -33.802843208700     41.515428194900    -23.912520231500
     220   74  1   0.96400     51.889855466400     21.927373658700      1.847448027700
     221   74  2  -0.48200     51.735986410900     21.430629886200      1.668367212710
     222   74  2  -0.48200     52.043724521800     22.424117431200      2.026528842700
     223   75  1   0.96400     43.551768744700    -50.194423764000     56.324558427300
     224   75  2  -0.48200     43.600982442300    -49.744236740100     56.636663626600
     225   75  2  -0.48200     43.502555047000    -50.644610788000     56.012453227900
     226   76  1   0.96400    -27.906430846000    -45.558521188500    -50.254962578200
     227   76  2  -0.48200    -28.262007167900    -45.977227952200    -50.282350993900
     228   76  2  -0.48200    -27.550854524000    -45.139814424900    -50.227574162600
     229   77  1   0.96400    -43.246879838200    -45.530382511500     39.413220332100
     230   77  2  -0.48200    -42.870039963300    -45.727197465500     39.762155258000
     231   77  2  -0.48200    -43.623719713200    -45.333567557400     39.064285406300
     232   78  1   0.96400    -58.624886688100    -12.692265472900     36.340863817200
     233   78  2  -0.48200    -58.399423677300    -12.215513116700     36.496984352800
     234   78  2  -0.48200    -58.850349698900    -13.169017829100     36.184743281500
     235   79  1   0.96400     37.792307211800    -30.463741592300     44.076434597100
     236   79  2  -0.48200     38.236583246300    -30.402629788600     44.394843379300
     237   79  2  -0.48200     37.348031177300    -30.524853396100     43.758025814900
     238   80  1   0.96400     24.133467177200    -15.292034512300    -42.283472702300
     239   80  2  -0.48200     23.650347537700    -15.549253311200    -42.229307183000
     240   80  2  -0.48200     24.616586816600    -15.034815713400    -42.337638221600
     241   81  1   0.96400      8.536559169240     33.231821271800    -25.594550503200
     242   81  2  -0.48200      8.388722353270     32.854958869200    -25.222234769800
     243   81  2  -0.48200      8.684395985220     33.608683674500    -25.966866236600
     244   82  1   0.96400     51.737586969800      5.966912648960     55.352851451500
     245   82  2  -0.48200     52.258144737400      6.137955902100     55.400431028500
     246   82  2  -0.48200     51.217029202200      5.795869395820     55.305271874600
     247   83  1   0.96400    -22.122737695600     55.114650778600     42.083096219200
     248   83  2  -0.48200    -22.241299669400     54.579821407300     42.034100281700
     249   83  2  -0.48200    -22.004175721700     55.649480150000     42.132092156800
     250   84  1   0.96400     -0.298172584236    -23.830319342500     41.460297407300
     251   84  2  -0.48200     -0.248163957912    -23.282648245100     41.452847144100
     252   84  2  -0.48200     -0.348181210559    -24.377990439800     41.467747670400
     253   85  1   0.96400    -20.793054129000     -9.013795399520     28.055223598500
     254   85  2  -0.48200    -20.481987548800     -8.865902479630     28.484018732500
     255   85  2  -0.48200    -21.104120709100     -9.161688319410     27.626428464500
     256   86  1   0.96400     -8.101364723550    -48.451688331000     21.301449500900
     257   86  2  -0.48200     -8.336532301730    -47.957271140700     21.353869459900
     258   86  2  -0.48200     -7.866197145370    -48.946105521300     21.249029541900
     259   87  1   0.96400    -56.703467109200    -34.893460891200     49.815969033100
     260   87  2  -0.48200    -56.718896481000    -34.632562963900     50.299905192100
     261   87  2  -0.48200    -56.688037737400    -35.154358818500     49.332032874100
     262   88  1   0.96400     10.327773842100     21.073505977000     32.132979246700
     263   88  2  -0.48200     10.118724499000     21.552713882700     31.962221654500
     264   88  2  -0.48200     10.536823185100     20.594298071300     32.303736838800
     265   89  1   0.96400     34.177082817400     15.433519113200      8.692435150700
     266   89  2  -0.48200     34.469352191900     15.161457929400      9.070669634800
     267   89  2  -0.48200     33.884813442800     15.705580297100      8.314200666610
     268   90  1   0.96400    -27.060579569000    -27.029181076200    -13.493071459100
     269   90  2  -0.48200    -27.010157776000    -27.175757638100    -14.020776826100
     270   90  2  -0.48200    -27.111001361900    -26.882604514300    -12.965366092200
     271   91  1   0.96400    -58.956897856000    -28.515245614700     41.033550850200
     272   91  2  -0.48200    -59.046275793000    -28.983710485300     41.307507506300
     273   91  2  -0.48200    -58.867519919000    -28.046780744200     40.759594194000
     274   92  1   0.96400    -30.289508871100    -27.462015805500     43.430347758200
     275   92  2  -0.48200    -29.865147875800    -27.797759999100     43.331891767700
     276   92  2  -0.48200    -30.713869866400    -27.126271611800     43.528803748800
     277   93  1   0.96400     30.018531324700    -35.339641009100    -29.047883614400
     278   93  2  -0.48200     30.159437423400    -34.815612992900    -28.958216956500
     279   93  2  -0.48200     29.877625225900    -35.863669025300    -29.137550272400
     280   94  1   0.96400    -52.181687737700    -24.477979020100    -58.669341377000
     281   94  2  -0.48200    -52.189213142400    -24.358897007500    -58.132440229100
     282   94  2  -0.48200    -52.174162333000    -24.597061032800    -59.206242524800
     283   95  1   0.96400     57.907886052300    -13.788207272200     27.723705331400
     284   95  2  -0.48200     58.030982712500    -13.890367563900     27.197482482200
     285   95  2  -0.48200     57.784789392100    -13.686046980500     28.249928180600
     286   96  1   0.96400    -46.989631811600     55.868163101200     26.423700080000
     287   96  2  -0.48200    -47.289587641900     55.510156515900     26.714144196200
     288   96  2  -0.48200    -46.689675981200     56.226169686600     26.133255963700
     289   97  1   0.96400     39.022034846500    -24.964733087700    -16.851430551800
     290   97  2  -0.48200     39.365157503600    -24.672563053000    -17.166713778400
     291   97  2  -0.48200     38.678912189400    -25.256903122400    -16.536147325100
     292   98  1   0.96400      1.728851448960     15.681965851200    -31.897086451100
     293   98  2  -0.48200      1.580049176180     15.681162040300    -32.426574163400
     294   98  2  -0.48200      1.877653721740     15.682769662000    -31.367598738800
     295   99  1   0.96400     -6.570366052440     30.238606332700    -35.713057764100
     296   99  2  -0.48200     -7.095965823640     30.386683026000    -35.647344954000
     297   99  2  -0.48200     -6.044766281240     30.090529639400    -35.778770574200
     298  100  1   0.96400     34.307706496500     22.361827089000    -45.729314514300
     299  100  2  -0.48200     34.689017324000     22.160328211600    -45.387993177100
     300  100  2  -0.48200     33.926395669000     22.563325966500    -46.070635851500
     301  101  1   0.96400    -40.342271086000      4.792792569390    -53.074370001000
     302  101  2  -0.48200    -40.385940949600      5.107021947020    -52.625089641700
     303  101  2  -0.48200    -40.298601222400      4.478563191770    -53.523650360300
     304  102  1   0.96400    -15.304755063600     31.864348133000     -2.951027395000
     305  102  2  -0.48200    -15.516860410900     32.022125784400     -2.468722994930
     306  102  2  -0.48200    -15.092649716200     31.706570481500     -3.433331795080
     307  103  1   0.96400    -42.245540705300    -57.176046708200     -1.362360865490
     308  103  2  -0.48200    -42.317567386700    -57.404900961600     -1.857272865620
     309  103  2  -0.48200    -42.173514023900    -56.947192454800     -0.867448865359
     310  104  1   0.96400     38.983178806500     47.792035558500    -20.162971367500
     311  104  2  -0.48200     38.861831541600     48.032212424700    -20.642648252800
     312  104  2  -0.48200     39.104526071400     47.551858692300    -19.683294482300
     313  105  1   0.96400    -50.542683913700     37.796978061300     -2.617915115460
     314  105  2  -0.48200    -50.356604905300     37.753524770500     -2.102176408220
     315  105  2  -0.48200    -50.728762922200     37.840431352000     -3.133653822700
     316  106  1   0.96400    -27.081927228600    -35.790637538000    -30.132616031900
     317  106  2  -0.48200    -26.904624048700    -35.849521757400    -29.615318988500
     318  106  2  -0.48200    -27.259230408400    -35.731753318600    -30.649913075300
     319  107  1   0.96400     29.064838031600     55.882538602700     -3.262037179750
     320  107  2  -0.48200     29.200994146400     56.282798828200     -3.613823001320
     321  107  2  -0.48200     28.928681916800     55.482278377200     -2.910251358180
     322  108  1   0.96400    -44.898521257800     49.961001697800     40.355746578700
     323  108  2  -0.48200    -44.578642194300     50.118814742900     40.774402078600
     324  108  2  -0.48200    -45.218400321200     49.803188652600     39.937091078900
     325  109  1   0.96400    -48.530035760400     20.291328924400    -28.294350147000
     326  109  2  -0.48200    -48.621435045700     20.815418349500    -28.433908182000
     327  109  2  -0.48200    -48.438636475100     19.767239499300    -28.154792112000
     328  110  1   0.96400    -30.407015504800     -0.870358269219     42.867369413600
     329  110  2  -0.48200    -29.927759029700     -1.123891951140     42.959748541200
     330  110  2  -0.48200    -30.886271979900     -0.616824587294     42.774990286000
     331  111  1   0.96400    -43.239215296100    -55.487780051000     49.423529800500
     332  111  2  -0.48200    -42.962408074200    -55.053948420000     49.617611942400
     333  111  2  -0.48200    -43.516022518000    -55.921611682100     49.229447658700
     334  112  1   0.96400     56.056671551100    -44.760353726600    -26.940470739000
     335  112  2  -0.48200     55.610409522100    -44.698673762800    -26.624961969600
     336  112  2  -0.48200     56.502933580100    -44.822033690300    -27.255979508300
     337  113  1   0.96400     55.244894601300     43.360094546900    -22.760922389900
     338  113  2  -0.48200     55.150918131400     42.847383726100    -22.936410387600
     339  113  2  -0.48200     55.338871071200     43.872805367700    -22.585434392200
     340  114  1   0.96400     31.813902523500    -33.091719432700    -53.633306702900