LAMMPS Atom File

         3000 atoms
         2000 bonds
         1000 angles
           0 dihedrals
           0 impropers

           2 atom types
           1 bond types
           1 angle types

         0.0  692.510482506 xlo xhi
         0.0  692.510482506 ylo yhi
         0.0  692.510482506 zlo zhi

Masses

         1    1.0e-20
         2   14.00670

Atoms

       1    1  1   0.96400    281.645908078000    -87.282026908400    111.099041293000
       2    1  2  -0.48200    281.179015766000    -87.552263587200    111.206203348000
       3    1  2  -0.48200    282.112800391000    -87.011790229700    110.991879237000
       4    2  1   0.96400   -162.898132343000   -260.870154484000     63.676441222400
       5    2  2  -0.48200   -162.903160524000   -260.378522677000     63.922962790400
       6    2  2  -0.48200   -162.893104162000   -261.361786292000     63.429919654400
       7    3  1   0.96400    306.640211602000    -31.849285736600   -319.237348799000
       8    3  2  -0.48200    306.387898991000    -31.399348234100   -319.046575137000
       9    3  2  -0.48200    306.892524213000    -32.299223239200   -319.428122462000
      10    4  1   0.96400   -305.109356577000   -196.452615270000    313.781841360000
      11    4  2  -0.48200   -304.833892523000   -196.004521128000    313.621120500000
      12    4  2  -0.48200   -305.384820631000   -196.900709412000    313.942562220000
      13    5  1   0.96400    185.075343593000   -204.284786623000   -328.542347237000
      14    5  2  -0.48200    184.698982679000   -204.336019789000   -328.144568875000
      15    5  2  -0.48200    185.451704507000   -204.233553457000   -328.940125599000
      16    6  1   0.96400    109.836921537000     64.299471243200    177.171350504000
      17    6  2  -0.48200    110.080590823000     64.397607062000    177.654563335000
      18    6  2  -0.48200    109.593252251000     64.201335424400    176.688137672000
      19    7  1   0.96400   -299.406802152000    172.695316076000    292.671948810000
      20    7  2  -0.48200   -299.430517287000    172.686097210000    293.221359954000
      21    7  2  -0.48200   -299.383087016000    172.704534941000    292.122537666000
      22    8  1   0.96400      8.682102666360   -225.177545287000   -150.810665594000
      23    8  2  -0.48200      8.663219093330   -225.583373715000   -150.439927550000
      24    8  2  -0.48200      8.700986239390   -224.771716858000   -151.181403638000
      25    9  1   0.96400     26.351908482800    -10.248946873500   -148.091370110000
      26    9  2  -0.48200     26.814060749800    -10.096600050400   -148.347701395000
      27    9  2  -0.48200     25.889756215800    -10.401293696700   -147.835038826000
      28   10  1   0.96400    201.008628608000   -227.360018659000   -165.255956545000
      29   10  2  -0.48200    200.691544312000   -226.928949032000   -165.128926917000
      30   10  2  -0.48200    201.325712904000   -227.791088286000   -165.382986174000
      31   11  1   0.96400    264.275850616000   -222.912768999000    -44.129971373800
      32   11  2  -0.48200    263.874565429000   -223.189838829000    -43.875604496900
      33   11  2  -0.48200    264.677135803000   -222.635699169000    -44.384338250600
      34   12  1   0.96400   -117.277382294000    301.205483832000   -107.699585673000
      35   12  2  -0.48200   -117.190917572000    301.645776153000   -108.017652528000
      36   12  2  -0.48200   -117.363847017000    300.765191512000   -107.381518818000
      37   13  1   0.96400    -60.392915435400    128.131190192000     82.258074323200
      38   13  2  -0.48200    -60.745501145800    128.412376262000     81.943244670200
      39   13  2  -0.48200    -60.040329725000    127.850004121000     82.572903976300
      40   14  1   0.96400    156.019653597000    188.672302585000   -342.720598468000
      41   14  2  -0.48200    155.720266103000    189.121938425000   -342.617183091000
      42   14  2  -0.48200    156.319041091000    188.222666746000   -342.824013844000
      43   15  1   0.96400     26.556611732400    -25.251655968200   -148.978247425000
      44   15  2  -0.48200     26.027467155100    -25.140474966200   -149.078968828000
      45   15  2  -0.48200     27.085756309700    -25.362836970200   -148.877526021000
      46   16  1   0.96400    146.587902551000    189.142937632000   -330.907348362000
      47   16  2  -0.48200    146.476074114000    189.541697016000   -331.269267351000
      48   16  2  -0.48200    146.699730988000    188.744178248000   -330.545429374000
      49   17  1   0.96400   -153.803570208000    165.153187345000   -252.368143531000
      50   17  2  -0.48200   -153.936484035000    165.216865714000   -252.898029349000
      51   17  2  -0.48200   -153.670656381000    165.089508976000   -251.838257713000
      52   18  1   0.96400     38.836642093200   -308.937478245000    294.527060280000
      53   18  2  -0.48200     39.119992855900   -309.408721905000    294.515154066000
      54   18  2  -0.48200     38.553291330600   -308.466234584000    294.538966493000
      55   19  1   0.96400      0.154204597858   -235.774125008000   -144.283720197000
      56   19  2  -0.48200      0.273500738618   -236.226261391000   -143.994166882000
      57   19  2  -0.48200      0.034908457098   -235.321988625000   -144.573273512000
      58   20  1   0.96400    278.270084328000   -220.484281453000    -49.406082544500
      59   20  2  -0.48200    277.925447672000   -220.592647503000    -48.991374967600
      60   20  2  -0.48200    278.614720984000   -220.375915402000    -49.820790121300
      61   21  1   0.96400   -283.851187818000   -173.396598797000      7.614131974320
      62   21  2  -0.48200   -284.338579087000   -173.533117148000      7.398928604030
      63   21  2  -0.48200   -283.363796549000   -173.260080446000      7.829335344600
      64   22  1   0.96400     24.255300425100   -305.207508371000    292.830745187000
      65   22  2  -0.48200     23.925647500800   -304.900766261000    292.514931591000
      66   22  2  -0.48200     24.584953349400   -305.514250480000    293.146558784000
      67   23  1   0.96400    -96.238269276100     67.329763134300    203.399930255000
      68   23  2  -0.48200    -95.994485093500     67.554962929600    203.838512430000
      69   23  2  -0.48200    -96.482053458700     67.104563339000    202.961348079000
      70   24  1   0.96400    -90.076202040400     58.223661006500    192.809037752000
      71   24  2  -0.48200    -90.195441224900     58.120745359600    192.282074389000
      72   24  2  -0.48200    -89.956962855900     58.326576653400    193.336001116000
      73   25  1   0.96400    170.226606989000   -201.607131465000   -328.606630913000
      74   25  2  -0.48200    170.591854037000   -201.558625781000   -328.198290623000
      75   25  2  -0.48200    169.861359942000   -201.655637149000   -329.014971203000
      76   26  1   0.96400   -271.380391919000   -170.505335267000     15.994079346400
      77   26  2  -0.48200   -271.283176292000   -170.247574758000     16.470113633000
      78   26  2  -0.48200   -271.477607545000   -170.763095776000     15.518045059800
      79   27  1   0.96400   -126.306093499000    288.970415263000   -105.954977335000
      80   27  2  -0.48200   -126.511183080000    288.477065195000   -105.824424765000
      81   27  2  -0.48200   -126.101003917000    289.463765332000   -106.085529905000
      82   28  1   0.96400    231.662527705000   -329.170786340000    310.203124177000
      83   28  2  -0.48200    231.626036276000   -329.173277069000    310.751906622000
      84   28  2  -0.48200    231.699019135000   -329.168295612000    309.654341732000
      85   29  1   0.96400    -79.705265270100    202.300224306000    208.898177487000
      86   29  2  -0.48200    -79.247357972700    202.023715697000    209.026098931000
      87   29  2  -0.48200    -80.163172567600    202.576732916000    208.770256043000
      88   30  1   0.96400   -173.889108376000   -270.533298166000     59.141069403600
      89   30  2  -0.48200   -174.346447731000   -270.828387483000     59.220208583800
      90   30  2  -0.48200   -173.431769022000   -270.238208849000     59.061930223400
      91   31  1   0.96400    198.616439715000   -212.454163679000   -165.399738409000
      92   31  2  -0.48200    198.662025512000   -212.024712536000   -165.740316815000
      93   31  2  -0.48200    198.570853918000   -212.883614822000   -165.059160003000
      94   32  1   0.96400    -93.549924071400    207.470357404000    211.773988156000
      95   32  2  -0.48200    -93.189336447900    207.075660319000    211.644795364000
      96   32  2  -0.48200    -93.910511694900    207.865054488000    211.903180947000
      97   33  1   0.96400   -304.138737467000    160.721270080000    284.755241710000
      98   33  2  -0.48200   -304.081369897000    160.202246086000    284.927935239000
      99   33  2  -0.48200   -304.196105037000    161.240294075000    284.582548180000
     100   34  1   0.96400   -210.057383679000     75.712371214700   -174.803179898000
     101   34  2  -0.48200   -210.566824022000     75.919069115900   -174.787479101000
     102   34  2  -0.48200   -209.547943336000     75.505673313500   -174.818880695000
     103   35  1   0.96400   -145.859707485000    157.962978880000   -262.946804062000
     104   35  2  -0.48200   -145.320150703000    157.997492216000   -262.845871864000
     105   35  2  -0.48200   -146.399264267000    157.928465545000   -263.047736260000
     106   36  1   0.96400     72.560831117300   -251.345258312000   -122.068652441000
     107   36  2  -0.48200     72.089906542000   -251.265741403000   -121.795875782000
     108   36  2  -0.48200     73.031755692500   -251.424775220000   -122.341429100000
     109   37  1   0.96400    106.396816488000     58.827608602200    191.012622232000
     110   37  2  -0.48200    105.955857412000     58.554090458100    191.194948637000
     111   37  2  -0.48200    106.837775565000     59.101126746300    190.830295828000
     112   38  1   0.96400   -223.141796677000     78.663875927000   -167.596737662000
     113   38  2  -0.48200   -222.723612034000     78.689604753900   -167.953051612000
     114   38  2  -0.48200   -223.559981321000     78.638147100200   -167.240423711000
     115   39  1   0.96400   -291.660302320000   -197.373275361000    307.089026663000
     116   39  2  -0.48200   -291.417283913000   -196.895617255000    306.965395001000
     117   39  2  -0.48200   -291.903320726000   -197.850933466000    307.212658325000
     118   40  1   0.96400    199.887529549000   -257.851525837000   -303.226098795000
     119   40  2  -0.48200    199.548849902000   -258.060637101000   -303.605662461000
     120   40  2  -0.48200    200.226209196000   -257.642414573000   -302.846535130000
     121   41  1   0.96400   -201.393524049000   -286.862553420000    -12.370934998000
     122   41  2  -0.48200   -201.056304716000   -286.614895467000    -12.727934522600
     123   41  2  -0.48200   -201.730743381000   -287.110211372000    -12.013935473400
     124   42  1   0.96400    237.256440396000   -341.637275120000    303.795869099000
     125   42  2  -0.48200    237.396572746000   -341.709108883000    304.322844274000
     126   42  2  -0.48200    237.116308047000   -341.565441356000    303.268893924000
     127   43  1   0.96400    -53.696423487600    141.366846336000     84.639117245800
     128   43  2  -0.48200    -53.388594261900    141.198717569000     84.215473663000
     129   43  2  -0.48200    -54.004252713400    141.534975104000     85.062760828500
     130   44  1   0.96400    172.013732800000    249.398681366000   -323.271952924000
     131   44  2  -0.48200    172.549059227000    249.327395818000   -323.167818461000
     132   44  2  -0.48200    171.478406372000    249.469966913000   -323.376087388000
     133   45  1   0.96400    179.548822965000      3.523439273050    121.963550141000
     134   45  2  -0.48200    180.019374788000      3.664427925160    122.210942909000
     135   45  2  -0.48200    179.078271141000      3.382450620930    121.716157374000
     136   46  1   0.96400     81.858200918800   -263.090066664000   -119.764491994000
     137   46  2  -0.48200     81.741456492700   -262.561221435000   -119.668609447000
     138   46  2  -0.48200     81.974945345000   -263.618911893000   -119.860374542000
     139   47  1   0.96400     -0.161225283882   -164.498423511000   -228.477955742000
     140   47  2  -0.48200      0.037847583829   -164.015312333000   -228.649634462000
     141   47  2  -0.48200     -0.360298151593   -164.981534689000   -228.306277021000
     142   48  1   0.96400   -265.510361934000   -305.629465966000    -39.923498016700
     143   48  2  -0.48200   -265.672594187000   -306.113301870000    -39.718355349300
     144   48  2  -0.48200   -265.348129681000   -305.145630062000    -40.128640684100
     145   49  1   0.96400    192.225688646000     11.776123372300    119.532930007000
     146   49  2  -0.48200    192.052432511000     11.345213343500    119.827546467000
     147   49  2  -0.48200    192.398944781000     12.207033401100    119.238313546000
     148   50  1   0.96400   -264.943192505000   -297.272220541000    -52.868310923300
     149   50  2  -0.48200   -265.009722659000   -297.164748684000    -53.403589858700
     150   50  2  -0.48200   -264.876662351000   -297.379692397000    -52.333031987900
     151   51  1   0.96400     57.697662250400    -57.844512703500    125.098270787000
     152   51  2  -0.48200     57.549684164600    -58.353614031100    124.951920781000
     153   51  2  -0.48200     57.845640336300    -57.335411375900    125.244620794000
     154   52  1   0.96400    159.871670366000    245.544494545000   -331.549411486000
     155   52  2  -0.48200    160.275176642000    245.572231195000   -331.176700656000
     156   52  2  -0.48200    159.468164090000    245.516757896000   -331.922122317000
     157   53  1   0.96400    145.500510389000   -136.897208996000     56.834885770600
     158   53  2  -0.48200    145.617812451000   -136.446662635000     56.542057829800
     159   53  2  -0.48200    145.383208328000   -137.347755357000     57.127713711300
     160   54  1   0.96400    -91.096870252000    -42.807436504000     44.735874840900
     161   54  2  -0.48200    -90.613506249900    -43.064533977200     44.683337893800
     162   54  2  -0.48200    -91.580234254000    -42.550339030900     44.788411788000
     163   55  1   0.96400   -206.652267864000   -277.045869642000     -2.054781969130
     164   55  2  -0.48200   -206.257668732000   -276.722017978000     -1.850058680370
     165   55  2  -0.48200   -207.046866996000   -277.369721306000     -2.259505257890
     166   56  1   0.96400    339.188290728000    182.732296598000   -136.921908572000
     167   56  2  -0.48200    338.852049302000    182.321457189000   -137.065618987000
     168   56  2  -0.48200    339.524532154000    183.143136007000   -136.778198158000
     169   57  1   0.96400   -334.093328087000   -285.267250468000     95.535101920600
     170   57  2  -0.48200   -333.804993720000   -285.117968881000     95.979036939200
     171   57  2  -0.48200   -334.381662455000   -285.416532054000     95.091166902000
     172   58  1   0.96400      6.344091854060   -150.687678452000   -226.383087992000
     173   58  2  -0.48200      6.548824146940   -150.306817598000   -226.043191393000
     174   58  2  -0.48200      6.139359561170   -151.068539306000   -226.722984591000
     175   59  1   0.96400     41.612930483900   -207.719523126000    250.194145351000
     176   59  2  -0.48200     41.751634714600   -207.536234614000    249.694479004000
     177   59  2  -0.48200     41.474226253200   -207.902811638000    250.693811697000
     178   60  1   0.96400   -169.216997519000   -276.316503113000     43.928950422200
     179   60  2  -0.48200   -169.647608638000   -275.987049723000     43.836567912900
     180   60  2  -0.48200   -168.786386401000   -276.645956504000     44.021332931400
     181   61  1   0.96400     52.883946165400   -200.929919634000    242.464260103000
     182   61  2  -0.48200     52.423272355200   -200.992388515000    242.758160221000
     183   61  2  -0.48200     53.344619975700   -200.867450752000    242.170359985000
     184   62  1   0.96400   -151.654265375000   -250.707022800000     63.183626657400
     185   62  2  -0.48200   -151.705748539000   -251.163627981000     63.485886798700
     186   62  2  -0.48200   -151.602782211000   -250.250417620000     62.881366516200
     187   63  1   0.96400    -97.402331089700    125.153162421000    269.622806934000
     188   63  2  -0.48200    -97.884767007100    125.382526651000    269.491857955000
     189   63  2  -0.48200    -96.919895172400    124.923798190000    269.753755914000
     190   64  1   0.96400    -77.875443064400    -50.273009944400     43.958704629500
     191   64  2  -0.48200    -78.398570801000    -50.389467045200     44.082297165200
     192   64  2  -0.48200    -77.352315327800    -50.156552843700     43.835112093700
     193   65  1   0.96400    204.066958730000   -245.011585974000   -296.082016469000
     194   65  2  -0.48200    203.854528645000   -245.510768087000   -295.991514112000
     195   65  2  -0.48200    204.279388815000   -244.512403861000   -296.172518827000
     196   66  1   0.96400   -343.359477227000   -295.866861801000     90.118734994900
     197   66  2  -0.48200   -343.288655648000   -296.365682447000     89.898139738000
     198   66  2  -0.48200   -343.430298805000   -295.368041155000     90.339330251800
     199   67  1   0.96400    154.403695399000   -144.524823652000     66.505687399300
     200   67  2  -0.48200    154.628710712000   -145.020265272000     66.585723077300
     201   67  2  -0.48200    154.178680085000   -144.029382032000     66.425651721300
     202   68  1   0.96400    296.398560200000    -89.968019361700    108.165647732000
     203   68  2  -0.48200    296.804571165000    -89.602149217100    108.227244274000
     204   68  2  -0.48200    295.992549236000    -90.333889506200    108.104051191000
     205   69  1   0.96400   -217.276625218000    244.506061706000   -232.933803721000
     206   69  2  -0.48200   -217.264558745000    244.631670359000   -232.398474975000
     207   69  2  -0.48200   -217.288691692000    244.380453054000   -233.469132468000
     208   70  1   0.96400   -110.969103318000    124.281241999000    262.533264940000
     209   70  2  -0.48200   -110.446731427000    124.145136371000    262.427894804000
     210   70  2  -0.48200   -111.491475209000    124.417347628000    262.638635075000
     211   71  1   0.96400    242.160498687000   -335.390033998000    212.144801582000
     212   71  2  -0.48200    242.022082082000   -335.046240236000    212.551184029000
     213   71  2  -0.48200    242.298915291000   -335.733827760000    211.738419136000
     214   72  1   0.96400   -206.712453171000   -297.629365603000     -2.992252404240
     215   72  2  -0.48200   -206.949759269000   -298.124935813000     -3.016665174790
     216   72  2  -0.48200   -206.475147074000   -297.133795393000     -2.967839633700
     217   73  1   0.96400    193.237192357000   -214.151127575000   -192.035729150000
     218   73  2  -0.48200    193.348409141000   -213.931878457000   -192.527725746000
     219   73  2  -0.48200    193.125975572000   -214.370376693000   -191.543732553000
     220   74  1   0.96400    -91.987316480100   -249.391133450000   -267.191433446000
     221   74  2  -0.48200    -91.957084803500   -249.623852307000   -267.688854775000
     222   74  2  -0.48200    -92.017548156700   -249.158414592000   -266.694012116000
     223   75  1   0.96400    -85.984465109300   -249.162337377000   -281.259808717000
     224   75  2  -0.48200    -85.734867894300   -248.957018749000   -281.704831740000
     225   75  2  -0.48200    -86.234062324200   -249.367656005000   -280.814785693000
     226   76  1   0.96400     63.154884173200   -190.426931629000   -186.870683659000
     227   76  2  -0.48200     62.744180379600   -190.061775853000   -186.848691546000
     228   76  2  -0.48200     63.565587966800   -190.792087406000   -186.892675772000
     229   77  1   0.96400   -207.908239579000    241.749612513000   -244.840249367000
     230   77  2  -0.48200   -208.246564809000    241.569933437000   -244.445595762000
     231   77  2  -0.48200   -207.569914349000    241.929291589000   -245.234902973000
     232   78  1   0.96400   -262.151062064000   -319.512111663000    -44.888730105900
     233   78  2  -0.48200   -261.919543231000   -319.490888668000    -45.387176306400
     234   78  2  -0.48200   -262.382580896000   -319.533334657000    -44.390283905400
     235   79  1   0.96400   -310.829042000000     49.453764148200    111.339177717000
     236   79  2  -0.48200   -311.097202404000     48.987764338800    111.223271827000
     237   79  2  -0.48200   -310.560881595000     49.919763957500    111.455083606000
     238   80  1   0.96400   -145.037919521000   -113.972052529000   -115.133703794000
     239   80  2  -0.48200   -145.369742342000   -113.837804077000   -115.551281294000
     240   80  2  -0.48200   -144.706096700000   -114.106300981000   -114.716126294000
     241   81  1   0.96400    313.821055743000    -37.808575228300   -196.496086863000
     242   81  2  -0.48200    313.452772509000    -37.401925740300   -196.534863834000
     243   81  2  -0.48200    314.189338977000    -38.215224716300   -196.457309892000
     244   82  1   0.96400     63.354830596400    -44.437694105800    129.702383709000
     245   82  2  -0.48200     62.991836888000    -44.586858435900    129.317045454000
     246   82  2  -0.48200     63.717824304800    -44.288529775700    130.087721963000
     247   83  1   0.96400    190.003523728000    -25.632807699300    -31.416931677500
     248   83  2  -0.48200    190.409389936000    -25.261721739900    -31.408695661900
     249   83  2  -0.48200    189.597657520000    -26.003893658700    -31.425167693100
     250   84  1   0.96400     29.289191763900   -149.925973919000   -241.384403403000
     251   84  2  -0.48200     28.962080972100   -150.225185144000   -241.058871265000
     252   84  2  -0.48200     29.616302555700   -149.626762695000   -241.709935540000
     253   85  1   0.96400    130.683087105000     -6.507551073840     75.508175540800
     254   85  2  -0.48200    130.248768012000     -6.386241592320     75.193293125100
     255   85  2  -0.48200    131.117406197000     -6.628860555360     75.823057956500
     256   86  1   0.96400     43.065684263700   -317.621288893000    305.445896440000
     257   86  2  -0.48200     43.219036288800   -317.912011862000    305.004916495000
     258   86  2  -0.48200     42.912332238600   -317.330565923000    305.886876385000
     259   87  1   0.96400     14.745626852900   -146.234792263000   -238.720672141000
     260   87  2  -0.48200     14.462764706600   -146.550525561000   -238.370241704000
     261   87  2  -0.48200     15.028488999100   -145.919058965000   -239.071102577000
     262   88  1   0.96400   -340.220404029000    181.317055561000   -129.491060798000
     263   88  2  -0.48200   -340.015704713000    181.432377406000   -128.993769070000
     264   88  2  -0.48200   -340.425103344000    181.201733716000   -129.988352526000
     265   89  1   0.96400    320.792429997000    -51.157604258600   -199.410055117000
     266   89  2  -0.48200    320.656451954000    -50.685783070600   -199.162275501000
     267   89  2  -0.48200    320.928408041000    -51.629425446700   -199.657834733000
     268   90  1   0.96400   -301.190988644000     59.832632012400    105.424797224000
     269   90  2  -0.48200   -301.170928999000     60.168259113100    104.989536314000
     270   90  2  -0.48200   -301.211048290000     59.497004911700    105.860058134000
     271   91  1   0.96400    124.915981842000     -2.972125034450     61.794965345600
     272   91  2  -0.48200    125.191793116000     -3.244543177050     62.185114671600
     273   91  2  -0.48200    124.640170568000     -2.699706891860     61.404816019600
     274   92  1   0.96400   -299.082121252000     13.658931547400   -200.861236579000
     275   92  2  -0.48200   -298.952161169000     13.142109409400   -200.997270599000
     276   92  2  -0.48200   -299.212081335000     14.175753685400   -200.725202560000
     277   93  1   0.96400   -292.959753987000     22.904637511000   -190.690571979000
     278   93  2  -0.48200   -292.896385102000     22.906186467500   -190.144236931000
     279   93  2  -0.48200   -293.023122872000     22.903088554500   -191.236907028000
     280   94  1   0.96400    197.484500598000   -212.018358521000   -177.532879678000
     281   94  2  -0.48200    197.665685037000   -212.328171724000   -177.949638574000
     282   94  2  -0.48200    197.303316159000   -211.708545318000   -177.116120781000
     283   95  1   0.96400    196.822964021000    -12.150344798800    -30.938907683600
     284   95  2  -0.48200    196.951537962000    -11.660341344700    -31.153069670600
     285   95  2  -0.48200    196.694390080000    -12.640348252800    -30.724745696700
     286   96  1   0.96400    -10.300800794300     48.086739718900     52.101924993100
     287   96  2  -0.48200    -10.002687905700     48.490600939500     51.877147725100
     288   96  2  -0.48200    -10.598913682900     47.682878498400     52.326702261100
     289   97  1   0.96400   -161.972566374000   -278.340514987000     57.149239268400
     290   97  2  -0.48200   -162.321015412000   -277.922458138000     57.069792819800
     291   97  2  -0.48200   -161.624117335000   -278.758571837000     57.228685716900
     292   98  1   0.96400   -159.367990134000    125.228275716000    -32.560643072000
     293   98  2  -0.48200   -159.568087421000    125.508909963000    -32.989251862700
     294   98  2  -0.48200   -159.167892848000    124.947641470000    -32.132034281300
     295   99  1   0.96400    -76.424456043500   -233.762603735000     19.460653084300
     296   99  2  -0.48200    -76.261817113200   -233.738099192000     18.935821582100
     297   99  2  -0.48200    -76.587094973800   -233.787108278000     19.985484586500
     298  100  1   0.96400   -143.402177879000   -123.436263239000   -126.819017255000
     299  100  2  -0.48200   -143.537605474000   -122.906261926000   -126.876095921000
     300  100  2  -0.48200   -143.266750285000   -123.966264553000   -126.761938589000
     301  101  1   0.96400    307.206776787000    -17.940596300400   -312.582794265000
     302  101  2  -0.48200    307.463225309000    -17.465679519800   -312.477019946000
     303  101  2  -0.48200    306.950328264000    -18.415513080900   -312.688568585000
     304  102  1   0.96400    -20.130054747000     53.293204128400     41.951528262300
     305  102  2  -0.48200    -20.411180678200     53.272289880800     42.423789636000
     306  102  2  -0.48200    -19.848928815800     53.314118376000     41.479266888600
     307  103  1   0.96400    217.691667461000   -243.184558925000   -300.114740053000
     308  103  2  -0.48200    217.364593048000   -243.409865761000   -299.734267769000
     309  103  2  -0.48200    218.018741873000   -242.959252089000   -300.495212336000
     310  104  1   0.96400    -81.705922096900   -225.278983790000      8.079302147060
     311  104  2  -0.48200    -81.545531164500   -225.804701220000      8.059404116380
     312  104  2  -0.48200    -81.866313029300   -224.753266359000      8.099200177740
     313  105  1   0.96400   -165.409387886000    140.372166133000    122.884906001000
     314  105  2  -0.48200   -165.619961597000    139.866354613000    122.933004007000
     315  105  2  -0.48200   -165.198814175000    140.877977653000    122.836807996000
     316  106  1   0.96400    296.520793502000    221.289956212000    -25.054153153000
     317  106  2  -0.48200    296.653853043000    221.489304906000    -24.559122591700
     318  106  2  -0.48200    296.387733961000    221.090607517000    -25.549183714400
     319  107  1   0.96400   -344.556869863000    287.616885249000     68.704140443700
     320  107  2  -0.48200   -344.668811649000    287.453321432000     68.191094720400
     321  107  2  -0.48200   -344.444928077000    287.780449066000     69.217186167000
     322  108  1   0.96400    248.331545447000   -331.060688818000    225.140907619000
     323  108  2  -0.48200    247.861426824000   -331.296757956000    224.980408887000
     324  108  2  -0.48200    248.801664070000   -330.824619681000    225.301406350000
     325  109  1   0.96400   -138.138474155000    132.842933566000   -300.271560186000
     326  109  2  -0.48200   -137.697408425000    133.140988916000   -300.133270529000
     327  109  2  -0.48200   -138.579539886000    132.544878215000   -300.409849843000
     328  110  1   0.96400    301.741326097000    235.358148249000    -26.975006686900
     329  110  2  -0.48200    301.211982127000    235.300455011000    -26.837287945600
     330  110  2  -0.48200    302.270670067000    235.415841488000    -27.112725428100
     331  111  1   0.96400    182.847997514000    164.948348803000   -312.080503007000
     332  111  2  -0.48200    183.031642928000    165.162132525000   -312.552806810000
     333  111  2  -0.48200    182.664352100000    164.734565081000   -311.608199204000
     334  112  1   0.96400     72.869118422400   -189.607825707000   -235.213092953000
     335  112  2  -0.48200     73.286832598900   -189.807462116000   -235.510010738000
     336  112  2  -0.48200     72.451404245900   -189.408189298000   -234.916175169000
     337  113  1   0.96400   -164.232302942000   -114.649779328000    254.729274564000
     338  113  2  -0.48200   -164.630917801000   -114.952434874000    254.501226731000
     339  113  2  -0.48200   -163.833688082000   -114.347123783000    254.957322398000
     340  114  1   0.96400    181.881459919000    154.779656539000   -323.070895070000