LAMMPS Atom File

         3000 atoms
         2000 bonds
         1000 angles
           0 dihedrals
           0 impropers

           2 atom types
           1 bond types
           1 angle types

         0.0  321.434892276 xlo xhi
         0.0  321.434892276 ylo yhi
         0.0  321.434892276 zlo zhi

Masses

         1    1.0e-20
         2   14.00670

Atoms

       1    1  1   0.96400     82.074301822700    -29.445525676600     81.502957821900
       2    1  2  -0.48200     82.535583868900    -29.690211666600     81.675722517600
       3    1  2  -0.48200     81.613019776400    -29.200839686500     81.330193126200
       4    2  1   0.96400    151.225927929000     61.270144151200   -121.796804670000
       5    2  2  -0.48200    150.788906591000     61.086173933700   -122.075493222000
       6    2  2  -0.48200    151.662949268000     61.454114368700   -121.518116119000
       7    3  1   0.96400     44.615560861500     37.802541076900    -45.526025861800
       8    3  2  -0.48200     45.005689857700     37.941938774700    -45.887782200000
       9    3  2  -0.48200     44.225431865400     37.663143379000    -45.164269523700
      10    4  1   0.96400    152.425632502000    -19.389025657000    157.835327205000
      11    4  2  -0.48200    152.890470414000    -19.515869977900    158.100536997000
      12    4  2  -0.48200    151.960794590000    -19.262181336100    157.570117412000
      13    5  1   0.96400    -34.832767037000    137.577158058000    -40.369306586200
      14    5  2  -0.48200    -34.851795341500    137.156155369000    -40.015902201200
      15    5  2  -0.48200    -34.813738732500    137.998160748000    -40.722710971100
      16    6  1   0.96400    -42.951811149500    -42.926828958800    -70.142629897200
      17    6  2  -0.48200    -42.750205133400    -43.187566111100    -69.702321878100
      18    6  2  -0.48200    -43.153417165600    -42.666091806600    -70.582937916300
      19    7  1   0.96400    -77.076190533600     27.280417472400    -67.428547132000
      20    7  2  -0.48200    -77.265142331000     27.725659403300    -67.166713518300
      21    7  2  -0.48200    -76.887238736200     26.835175541500    -67.690380745600
      22    8  1   0.96400    -46.495633237500     72.501670878500     36.466258541200
      23    8  2  -0.48200    -46.254649856600     72.164116112500     36.827483941800
      24    8  2  -0.48200    -46.736616618400     72.839225644600     36.105033140600
      25    9  1   0.96400    -42.350951380200     71.513014682700     51.105292044800
      26    9  2  -0.48200    -42.295357448600     71.752538883600     50.613319005000
      27    9  2  -0.48200    -42.406545311900     71.273490481700     51.597265084700
      28   10  1   0.96400   -160.274311300000   -103.169142960000     42.479476969100
      29   10  2  -0.48200   -160.224883981000   -102.943372761000     42.978560887200
      30   10  2  -0.48200   -160.323738619000   -103.394913159000     41.980393050900
      31   11  1   0.96400     28.316747601300     49.283597111200    -27.549070431200
      32   11  2  -0.48200     28.209542971400     49.740881821800    -27.262892408400
      33   11  2  -0.48200     28.423952231100     48.826312400500    -27.835248454100
      34   12  1   0.96400     24.899172621300     12.338093340700     21.611102013500
      35   12  2  -0.48200     25.071685596100     12.843973919300     21.740809814900
      36   12  2  -0.48200     24.726659646500     11.832212762100     21.481394212000
      37   13  1   0.96400    -12.081977333300    132.346426680000    100.272139349000
      38   13  2  -0.48200    -12.276574301100    132.096039912000     99.822763686000
      39   13  2  -0.48200    -11.887380365600    132.596813447000    100.721515012000
      40   14  1   0.96400     96.525387314700    -21.146212008600    128.264084005000
      41   14  2  -0.48200     96.838421837100    -20.817840355800    127.953147604000
      42   14  2  -0.48200     96.212352792300    -21.474583661300    128.575020406000
      43   15  1   0.96400     67.318160603900   -119.760471520000   -125.892306285000
      44   15  2  -0.48200     66.983163728400   -119.447958410000   -126.196629549000
      45   15  2  -0.48200     67.653157479400   -120.072984631000   -125.587983021000
      46   16  1   0.96400    -73.665034508200     20.973196502900   -103.240789036000
      47   16  2  -0.48200    -73.830015616800     20.625287783700   -102.848054065000
      48   16  2  -0.48200    -73.500053399600     21.321105222100   -103.633524006000
      49   17  1   0.96400    -57.706830173600   -149.952365077000      8.993347724900
      50   17  2  -0.48200    -58.204772164600   -150.167833301000      8.903196639550
      51   17  2  -0.48200    -57.208888182600   -149.736896854000      9.083498810250
      52   18  1   0.96400     -8.174451797590    119.739738823000     92.879008089500
      53   18  2  -0.48200     -8.570209955780    120.053810191000     93.096343442800
      54   18  2  -0.48200     -7.778693639400    119.425667455000     92.661672736300
      55   19  1   0.96400    -55.312663544300    142.489903219000    108.061205991000
      56   19  2  -0.48200    -54.917601652700    142.445086377000    108.441229086000
      57   19  2  -0.48200    -55.707725435800    142.534720061000    107.681182897000
      58   20  1   0.96400   -144.239803234000    -91.956893498200    141.965307738000
      59   20  2  -0.48200   -144.341489525000    -92.497364786400    141.972427064000
      60   20  2  -0.48200   -144.138116942000    -91.416422210100    141.958188412000
      61   21  1   0.96400     28.383519612700     54.500912473500     88.513598323800
      62   21  2  -0.48200     28.565634423400     54.875479904900     88.154386081500
      63   21  2  -0.48200     28.201404801900     54.126345042100     88.872810566100
      64   22  1   0.96400     95.844841597400     41.452534041100     26.192104732600
      65   22  2  -0.48200     95.605006402200     41.075729427800     26.513036754300
      66   22  2  -0.48200     96.084676792500     41.829338654400     25.871172710900
      67   23  1   0.96400    -82.582496599900    -69.814323376600    123.046386210000
      68   23  2  -0.48200    -82.161834373900    -69.879261054000    123.394705589000
      69   23  2  -0.48200    -83.003158826000    -69.749385699300    122.698066831000
      70   24  1   0.96400     90.673028695700    -94.507385001300    -86.137181749100
      71   24  2  -0.48200     91.048297615000    -94.111241714400    -86.068306975700
      72   24  2  -0.48200     90.297759776400    -94.903528288200    -86.206056522500
      73   25  1   0.96400   -157.344694283000    -37.078200424400     75.392412322900
      74   25  2  -0.48200   -157.887603413000    -37.055312845600     75.307407415100
      75   25  2  -0.48200   -156.801785152000    -37.101088003300     75.477417230700
      76   26  1   0.96400   -130.621301161000    143.009205163000     70.611964241000
      77   26  2  -0.48200   -130.806941418000    143.368331648000     70.984879597200
      78   26  2  -0.48200   -130.435660904000    142.650078678000     70.239048884800
      79   27  1   0.96400    -81.516551972300     -0.620475795359    123.648885103000
      80   27  2  -0.48200    -81.751060302700     -0.638196028144    124.146069009000
      81   27  2  -0.48200    -81.282043641800     -0.602755562575    123.151701197000
      82   28  1   0.96400   -119.922153989000   -144.672150950000    139.789124128000
      83   28  2  -0.48200   -119.661765830000   -145.117430652000    139.598273418000
      84   28  2  -0.48200   -120.182542148000   -144.226871247000    139.979974838000
      85   29  1   0.96400    150.819419078000   -124.456037070000    -72.059477133800
      86   29  2  -0.48200    150.962482020000   -124.944132931000    -72.268750698600
      87   29  2  -0.48200    150.676356135000   -123.967941209000    -71.850203569000
      88   30  1   0.96400   -137.503996013000     76.986148848000    133.428020063000
      89   30  2  -0.48200   -137.854000844000     77.265410292800    133.108630546000
      90   30  2  -0.48200   -137.153991182000     76.706887403200    133.747409580000
      91   31  1   0.96400    108.049762258000   -154.195368424000     -5.137485941760
      92   31  2  -0.48200    107.504319959000   -154.263061439000     -5.157743149150
      93   31  2  -0.48200    108.595204557000   -154.127675409000     -5.117228734360
      94   32  1   0.96400    -44.664663495400   -157.523357367000      7.582194718180
      95   32  2  -0.48200    -44.598390288700   -156.985544110000      7.488041849990
      96   32  2  -0.48200    -44.730936702100   -158.061170624000      7.676347586380
      97   33  1   0.96400     86.240408437900    139.774936537000    112.749479031000
      98   33  2  -0.48200     86.494399797700    140.258862906000    112.811152837000
      99   33  2  -0.48200     85.986417078100    139.291010168000    112.687805225000
     100   34  1   0.96400   -113.629225502000     30.439954162000   -134.869176672000
     101   34  2  -0.48200   -113.799519070000     29.926724253000   -134.768701993000
     102   34  2  -0.48200   -113.458931934000     30.953184071100   -134.969651352000
     103   35  1   0.96400    -79.610682478300      8.312284826230     12.098249404600
     104   35  2  -0.48200    -79.728846398900      8.370587993800     11.564266232100
     105   35  2  -0.48200    -79.492518557700      8.253981658660     12.632232577100
     106   36  1   0.96400    -73.738700138200     18.662691353400    133.400935235000
     107   36  2  -0.48200    -73.844104676000     19.070990454100    133.754038234000
     108   36  2  -0.48200    -73.633295600400     18.254392252700    133.047832237000
     109   37  1   0.96400    -28.011499486500     -0.042279905475   -132.908721670000
     110   37  2  -0.48200    -27.703202414100      0.328367278526   -132.644007522000
     111   37  2  -0.48200    -28.319796558900     -0.412927089476   -133.173435818000
     112   38  1   0.96400   -126.964371859000    144.827466743000   -156.858046320000
     113   38  2  -0.48200   -126.805794044000    145.223024638000   -157.205734439000
     114   38  2  -0.48200   -127.122949674000    144.431908848000   -156.510358201000
     115   39  1   0.96400    -33.452440430400     98.865903820500     63.453217316000
     116   39  2  -0.48200    -33.151978255200     99.207122270800     63.762720870800
     117   39  2  -0.48200    -33.752902605700     98.524685370200     63.143713761200
     118   40  1   0.96400    -55.361752250300    139.219000469000    115.923589889000
     119   40  2  -0.48200    -54.965507728600    139.591644893000    115.842187108000
     120   40  2  -0.48200    -55.757996771900    138.846356046000    116.004992671000
     121   41  1   0.96400    -50.325408549600   -143.613630988000     78.229347252900
     122   41  2  -0.48200    -50.758839778200   -143.353046717000     78.013168605500
     123   41  2  -0.48200    -49.891977321000   -143.874215259000     78.445525900400
     124   42  1   0.96400     78.953445523800    -19.903864878700    145.155225809000
     125   42  2  -0.48200     78.476832054700    -19.629397120400    145.157881117000
     126   42  2  -0.48200     79.430058993000    -20.178332637100    145.152570501000
     127   43  1   0.96400     31.312430394600     97.459005023500   -157.760925283000
     128   43  2  -0.48200     31.248986966300     97.927481254800   -158.042003479000
     129   43  2  -0.48200     31.375873822800     96.990528792300   -157.479847088000
     130   44  1   0.96400   -158.599644919000   -107.882572313000     64.085668566900
     131   44  2  -0.48200   -158.218994665000   -107.811866290000     63.695020333100
     132   44  2  -0.48200   -158.980295173000   -107.953278336000     64.476316800700
     133   45  1   0.96400    -49.283994921500     38.755281302200    -30.127711422000
     134   45  2  -0.48200    -49.326174061300     38.537204448700    -30.630864883800
     135   45  2  -0.48200    -49.241815781700     38.973358155700    -29.624557960200
     136   46  1   0.96400    -46.971197463600     95.190646412600    124.879806153000
     137   46  2  -0.48200    -46.453200048500     95.054900749600    125.005312300000
     138   46  2  -0.48200    -47.489194878700     95.326392075700    124.754300006000
     139   47  1   0.96400     94.030164587300     84.267521309500   -102.894446219000
     140   47  2  -0.48200     93.712073981200     84.673924995300   -103.084589350000
     141   47  2  -0.48200     94.348255193400     83.861117623600   -102.704303087000
     142   48  1   0.96400   -140.207243480000   -157.254646606000     89.754527856300
     143   48  2  -0.48200   -139.899402498000   -157.672884410000     89.573389594700
     144   48  2  -0.48200   -140.515084462000   -156.836408803000     89.935666117900
     145   49  1   0.96400   -123.099338736000    -65.804146309400   -154.593292157000
     146   49  2  -0.48200   -123.291407069000    -65.502121464700   -154.175690973000
     147   49  2  -0.48200   -122.907270404000    -66.106171154200   -155.010893341000
     148   50  1   0.96400     20.637501385800   -122.151324767000     23.792427042600
     149   50  2  -0.48200     21.037853095500   -122.353480691000     24.110784532200
     150   50  2  -0.48200     20.237149676000   -121.949168844000     23.474069553100
     151   51  1   0.96400     12.422104176700    106.030382407000     31.187594855900
     152   51  2  -0.48200     12.365372754300    106.318832438000     30.722752812700
     153   51  2  -0.48200     12.478835599100    105.741932376000     31.652436899100
     154   52  1   0.96400   -125.381752398000     20.937365300800   -137.084367117000
     155   52  2  -0.48200   -125.913078880000     20.983875722800   -137.218639042000
     156   52  2  -0.48200   -124.850425915000     20.890854878800   -136.950095191000
     157   53  1   0.96400   -120.246634399000   -116.026653455000    148.722048352000
     158   53  2  -0.48200   -119.988608488000   -116.345912127000    148.355992987000
     159   53  2  -0.48200   -120.504660309000   -115.707394783000    149.088103716000
     160   54  1   0.96400    -73.667802268600     -2.548533021010    136.467303750000
     161   54  2  -0.48200    -74.196929768900     -2.678901796310    136.392952752000
     162   54  2  -0.48200    -73.138674768300     -2.418164245710    136.541654748000
     163   55  1   0.96400   -105.085952194000    -26.986895111500    152.005272782000
     164   55  2  -0.48200   -105.532167093000    -27.117744253500    151.711553928000
     165   55  2  -0.48200   -104.639737294000    -26.856045969400    152.298991636000
     166   56  1   0.96400     80.068013099300     86.818237666400   -159.337179943000
     167   56  2  -0.48200     79.604099776200     87.101105860800   -159.251915570000
     168   56  2  -0.48200     80.531926422500     86.535369472000   -159.422444315000
     169   57  1   0.96400    119.918042827000   -155.255686028000    -14.355115677900
     170   57  2  -0.48200    119.766471355000   -155.274249676000    -13.826739410800
     171   57  2  -0.48200    120.069614299000   -155.237122379000    -14.883491945100
     172   58  1   0.96400   -158.140294520000   -119.809503031000    111.693302566000
     173   58  2  -0.48200   -157.598457510000   -119.852978558000    111.609502013000
     174   58  2  -0.48200   -158.682131530000   -119.766027503000    111.777103119000
     175   59  1   0.96400   -157.711908979000    -91.017512120200     44.788350136900
     176   59  2  -0.48200   -157.296485002000    -90.663693133500     44.719538479900
     177   59  2  -0.48200   -158.127332956000    -91.371331106900     44.857161793900
     178   60  1   0.96400     35.311617269200    -19.102011908800    -82.419996983400
     179   60  2  -0.48200     35.286081043800    -19.407956179900    -82.876336773700
     180   60  2  -0.48200     35.337153494700    -18.796067637800    -81.963657193100
     181   61  1   0.96400   -129.853651935000   -136.010175317000    133.677710782000
     182   61  2  -0.48200   -129.892389278000   -135.499186060000    133.477987480000
     183   61  2  -0.48200   -129.814914591000   -136.521164575000    133.877434084000
     184   62  1   0.96400     67.080757356500     90.581309792300   -152.471941592000
     185   62  2  -0.48200     67.573984527600     90.373475370600   -152.598558379000
     186   62  2  -0.48200     66.587530185300     90.789144213900   -152.345324805000
     187   63  1   0.96400   -154.408735166000    -58.467548751500     44.702798966400
     188   63  2  -0.48200   -154.191152647000    -58.774092512300     44.301315753100
     189   63  2  -0.48200   -154.626317684000    -58.161004990800     45.104282179700
     190   64  1   0.96400     15.647924139300    -71.666408057300     56.218379840400
     191   64  2  -0.48200     16.107676836400    -71.947794751500     56.327691257100
     192   64  2  -0.48200     15.188171442200    -71.385021363100     56.109068423600
     193   65  1   0.96400   -136.746404473000     83.209439174800    119.599174560000
     194   65  2  -0.48200   -136.909248351000     82.891108125000    120.017082701000
     195   65  2  -0.48200   -136.583560595000     83.527770224600    119.181266420000
     196   66  1   0.96400   -121.143618448000   -115.842385168000   -157.626199957000
     197   66  2  -0.48200   -121.366170997000   -115.732190980000   -158.116941848000
     198   66  2  -0.48200   -120.921065898000   -115.952579357000   -157.135458066000
     199   67  1   0.96400    -79.575825857200     25.089824751900   -116.633075229000
     200   67  2  -0.48200    -79.447917437800     24.711689893200   -116.254718961000
     201   67  2  -0.48200    -79.703734276700     25.467959610700   -117.011431496000
     202   68  1   0.96400     19.111397007800   -143.169654651000    137.334375878000
     203   68  2  -0.48200     19.352018828700   -143.477482203000    136.947279846000
     204   68  2  -0.48200     18.870775186900   -142.861827100000    137.721471909000
     205   69  1   0.96400     34.425556709100    -27.951198608700     92.903298468100
     206   69  2  -0.48200     34.508282911000    -27.616801389200     93.332058162000
     207   69  2  -0.48200     34.342830507200    -28.285595828100     92.474538774200
     208   70  1   0.96400    -37.644914864900     25.696272600600    -23.382119684100
     209   70  2  -0.48200    -37.385073586600     25.487299488200    -22.944726556200
     210   70  2  -0.48200    -37.904756143200     25.905245712900    -23.819512812100
     211   71  1   0.96400     86.844635242800    -32.095865954300    132.658879127000
     212   71  2  -0.48200     86.887901114800    -32.430596234500    133.093141379000
     213   71  2  -0.48200     86.801369370700    -31.761135674200    132.224616874000
     214   72  1   0.96400     27.091482685300   -131.308976745000    142.604583038000
     215   72  2  -0.48200     26.877298212400   -131.041741837000    143.034943951000
     216   72  2  -0.48200     27.305667158200   -131.576211652000    142.174222124000
     217   73  1   0.96400    -24.329224028900     24.015820803000     27.539691706900
     218   73  2  -0.48200    -24.857321959100     23.874369578400     27.599726090700
     219   73  2  -0.48200    -23.801126098800     24.157272027600     27.479657323200
     220   74  1   0.96400    -39.285857707000   -109.121523192000   -108.253161461000
     221   74  2  -0.48200    -39.719034127700   -109.292059636000   -108.546036024000
     222   74  2  -0.48200    -38.852681286300   -108.950986747000   -107.960286898000
     223   75  1   0.96400    -12.271787282000     51.792195363500    107.470148146000
     224   75  2  -0.48200    -12.008724871900     51.336985508500    107.631647856000
     225   75  2  -0.48200    -12.534849692200     52.247405218600    107.308648436000
     226   76  1   0.96400      3.190795407620    -23.404246392900    -50.814678378700
     227   76  2  -0.48200      2.945205365160    -23.175214907700    -51.250258577800
     228   76  2  -0.48200      3.436385450080    -23.633277878100    -50.379098179600
     229   77  1   0.96400     29.049153237000   -116.245871295000   -132.404032766000
     230   77  2  -0.48200     29.284555279600   -116.424672884000   -132.867838619000
     231   77  2  -0.48200     28.813751194300   -116.067069706000   -131.940226912000
     232   78  1   0.96400    156.001602140000     62.958202996300   -107.533394341000
     233   78  2  -0.48200    156.368981149000     62.836135606100   -107.924076073000
     234   78  2  -0.48200    155.634223130000     63.080270386500   -107.142712609000
     235   79  1   0.96400    153.137250432000    128.764410166000   -130.884073113000
     236   79  2  -0.48200    152.897782930000    128.915433396000   -131.355610280000
     237   79  2  -0.48200    153.376717933000    128.613386935000   -130.412535946000
     238   80  1   0.96400      1.396117197490     46.636688583200    111.311160704000
     239   80  2  -0.48200      0.966357573092     46.758579443700    111.632017811000
     240   80  2  -0.48200      1.825876821880     46.514797722700    110.990303596000
     241   81  1   0.96400   -148.926883822000     19.718982308300     42.256841730000
     242   81  2  -0.48200   -149.084516473000     20.178698593400     41.999328847900
     243   81  2  -0.48200   -148.769251170000     19.259266023200     42.514354612100
     244   82  1   0.96400   -160.668186206000    -49.265532369600   -105.367437267000
     245   82  2  -0.48200   -160.615576771000    -49.812893865000   -105.378735083000
     246   82  2  -0.48200   -160.720795641755    -48.718170874200   -105.356139450000
     247   83  1   0.96400     74.734906205900     98.922050274200     94.338331096900
     248   83  2  -0.48200     74.408957285200     98.525688066700     94.140456637600
     249   83  2  -0.48200     75.060855126500     99.318412481600     94.536205556100
     250   84  1   0.96400    141.545491096000     42.767358848300   -100.418164622000
     251   84  2  -0.48200    141.141547175000     42.966779976600   -100.102632497000
     252   84  2  -0.48200    141.949435017000     42.567937720000   -100.733696748000
     253   85  1   0.96400    -35.775185413200    100.185441878000    -64.667534364900
     254   85  2  -0.48200    -35.482486135800    100.286320595000    -64.212945960500
     255   85  2  -0.48200    -36.067884690600    100.084563160000    -65.122122769300
     256   86  1   0.96400    -29.269437264700     20.975367575700    -11.656610727500
     257   86  2  -0.48200    -29.426596127300     21.430612646800    -11.922228906800
     258   86  2  -0.48200    -29.112278402200     20.520122504700    -11.390992548100
     259   87  1   0.96400   -105.611527241000    -23.780002620700    109.686872389000
     260   87  2  -0.48200   -105.957360554000    -23.712623374700    110.109198515000
     261   87  2  -0.48200   -105.265693928000    -23.847381866600    109.264546263000
     262   88  1   0.96400    135.293476037000    124.677374545000     43.204605866500
     263   88  2  -0.48200    135.272567455000    124.132704294000     43.278071161500
     264   88  2  -0.48200    135.314384620000    125.222044795000     43.131140571500
     265   89  1   0.96400    -36.698728083600     -0.374479194415     15.730350935800
     266   89  2  -0.48200    -36.339087301900      0.027406930195     15.622434065200
     267   89  2  -0.48200    -37.058368865400     -0.776365319024     15.838267806400
     268   90  1   0.96400   -158.231373174000    -54.302715247700    -61.987151033400
     269   90  2  -0.48200   -157.964565662000    -53.914089295400    -61.703807388400
     270   90  2  -0.48200   -158.498180685000    -54.691341200100    -62.270494678300
     271   91  1   0.96400     26.360886367400    106.551968214000     25.344321413300
     272   91  2  -0.48200     26.411988394900    106.467515641000     24.803251782200
     273   91  2  -0.48200     26.309784339800    106.636420786000     25.885391044500
     274   92  1   0.96400    137.256599917000     40.049470674500    -86.260903364400
     275   92  2  -0.48200    137.439473970000     39.716570147300    -85.863116587800
     276   92  2  -0.48200    137.073725864000     40.382371201600    -86.658690141000
     277   93  1   0.96400   -143.761500756000    -31.046591996800     56.969506284100
     278   93  2  -0.48200   -144.259532113000    -31.036154196200     56.736362938000
     279   93  2  -0.48200   -143.263469399000    -31.057029797400     57.202649630200
     280   94  1   0.96400     43.017451619100     91.502132037900    129.482455661000
     281   94  2  -0.48200     42.887324004300     91.029055662000    129.730982413000
     282   94  2  -0.48200     43.147579234000     91.975208413900    129.233928909000
     283   95  1   0.96400    -40.048014673300     22.929827350200     92.331616431800
     284   95  2  -0.48200    -39.705927516700     22.900633985300     91.901937336700
     285   95  2  -0.48200    -40.390101829900     22.959020715200     92.761295526900
     286   96  1   0.96400      1.593486319330    -30.434501024500    -37.583627571600
     287   96  2  -0.48200      1.305621776210    -30.468593074800    -37.116217968700
     288   96  2  -0.48200      1.881350862460    -30.400408974200    -38.051037174600
     289   97  1   0.96400     54.921589181800    -55.713448038900     33.246349511400
     290   97  2  -0.48200     55.019286340500    -55.609686913100     32.715134965300
     291   97  2  -0.48200     54.823892023100    -55.817209164600     33.777564057500
     292   98  1   0.96400    147.759739337000    -24.402371877100    144.296217753000
     293   98  2  -0.48200    147.830380042000    -24.944754160000    144.238499904000
     294   98  2  -0.48200    147.689098632000    -23.859989594300    144.353935602000
     295   99  1   0.96400    -17.757837204900    154.534357629000     69.379718996600
     296   99  2  -0.48200    -17.339722872900    154.890970667000     69.357190196800
     297   99  2  -0.48200    -18.175951536800    154.177744592000     69.402247796300
     298  100  1   0.96400    -44.672986452900     97.893235076300     53.081301255900
     299  100  2  -0.48200    -45.198575716400     98.041889193400     53.016819634000
     300  100  2  -0.48200    -44.147397189400     97.744580959200     53.145782877800
     301  101  1   0.96400     52.162497539200    -32.076046228000    144.371799002000
     302  101  2  -0.48200     52.133318903900    -32.560329476200    144.630871082000
     303  101  2  -0.48200     52.191676174500    -31.591762979700    144.112726922000
     304  102  1   0.96400     77.498614283100    128.539714877000    -83.339599441700
     305  102  2  -0.48200     77.186458271600    128.447668684000    -83.782979778100
     306  102  2  -0.48200     77.810770294600    128.631761071000    -82.896219105200
     307  103  1   0.96400   -157.839801489000   -100.724895548000     56.270631810100
     308  103  2  -0.48200   -158.047345365000   -100.845461965000     55.775768921300
     309  103  2  -0.48200   -157.632257614000   -100.604329130000     56.765494698900
     310  104  1   0.96400    -46.511219549000    143.809851180000    -47.848360371400
     311  104  2  -0.48200    -47.006079880300    143.870938917000    -47.616236394100
     312  104  2  -0.48200    -46.016359217600    143.748763442000    -48.080484348600
     313  105  1   0.96400      3.557358592020     92.004958805100    -59.441153672300
     314  105  2  -0.48200      4.068164069710     92.124591654000    -59.276030247400
     315  105  2  -0.48200      3.046553114330     91.885325956200    -59.606277097100
     316  106  1   0.96400     66.793579028600     43.120422838100    -53.944881406500
     317  106  2  -0.48200     66.499020731900     43.529211882600    -54.165396546500
     318  106  2  -0.48200     67.088137325300     42.711633793600    -53.724366266600
     319  107  1   0.96400     36.139970048600     20.717066046600     15.897295596900
     320  107  2  -0.48200     36.210505142000     20.171851927800     15.880974895100
     321  107  2  -0.48200     36.069434955300     21.262280165400     15.913616298600
     322  108  1   0.96400    118.070182839000    122.750361792000     11.883195681900
     323  108  2  -0.48200    118.269387501000    122.246769813000     11.979178087000
     324  108  2  -0.48200    117.870978178000    123.253953770000     11.787213276900
     325  109  1   0.96400     85.212189153700    140.129809900000    -77.287525179000
     326  109  2  -0.48200     85.389037883800    140.137459361000    -76.766789149500
     327  109  2  -0.48200     85.035340423700    140.122160440000    -77.808261208500
     328  110  1   0.96400     95.827201897900     38.893604408600     54.882985063900
     329  110  2  -0.48200     95.542788646700     38.782654536800     55.340477390100
     330  110  2  -0.48200     96.111615149000     39.004554280400     54.425492737700
     331  111  1   0.96400     50.437386317200    -52.827815618400    100.382391439000
     332  111  2  -0.48200     50.508915563900    -53.301851792400    100.112811632000
     333  111  2  -0.48200     50.365857070400    -52.353779444400    100.651971247000
     334  112  1   0.96400     80.164241780100     50.882336373100    -60.564803137900
     335  112  2  -0.48200     79.996429688600     50.468657435900    -60.243541812900
     336  112  2  -0.48200     80.332053871500     51.296015310200    -60.886064462900
     337  113  1   0.96400   -145.764267293000   -159.289542558000     57.204923420100
     338  113  2  -0.48200   -145.721745622000   -159.538424264000     56.716303113700
     339  113  2  -0.48200   -145.806788964000   -159.040660851000     57.693543726500
     340  114  1   0.96400     40.126726833100   -123.079226907000   -139.956742714000