LAMMPS Atom File

         3000 atoms
         2000 bonds
         1000 angles
           0 dihedrals
           0 impropers

           2 atom types
           1 bond types
           1 angle types

         0.0  1184.17626791 xlo xhi
         0.0  1184.17626791 ylo yhi
         0.0  1184.17626791 zlo zhi

Masses

         1    1.0e-20
         2   14.00670

Atoms

       1    1  1   0.96400   -155.567524294000   -587.547671487000    131.756606989000
       2    1  2  -0.48200   -155.741744165000   -587.382402700000    132.251413683000
       3    1  2  -0.48200   -155.393304423000   -587.712940273000    131.261800295000
       4    2  1   0.96400   -137.910541657000    572.306434252000    578.029544150000
       5    2  2  -0.48200   -138.256403164000    571.907365293000    577.875843846000
       6    2  2  -0.48200   -137.564680150000    572.705503212000    578.183244455000
       7    3  1   0.96400    486.849425715000   -155.873758817000    190.757373540000
       8    3  2  -0.48200    487.246165295000   -155.933953961000    190.381242910000
       9    3  2  -0.48200    486.452686135000   -155.813563673000    191.133504169000
      10    4  1   0.96400    341.178499701000    -99.847743557900    553.324533716000
      11    4  2  -0.48200    341.400750444000    -99.490215988800    552.970586482000
      12    4  2  -0.48200    340.956248958000   -100.205271127000    553.678480950000
      13    5  1   0.96400   -369.304632702000   -223.513693247000    387.673008930000
      14    5  2  -0.48200   -369.044563823000   -223.082396769000    387.894023696000
      15    5  2  -0.48200   -369.564701580000   -223.944989725000    387.451994165000
      16    6  1   0.96400   -527.717199525000    567.477914213000    151.241413528000
      17    6  2  -0.48200   -528.200298142000    567.247735650000    151.368431458000
      18    6  2  -0.48200   -527.234100907000    567.708092777000    151.114395597000
      19    7  1   0.96400   -178.195241106000   -269.051603895000    114.985693343000
      20    7  2  -0.48200   -177.819378999000   -269.149410647000    115.375130778000
      21    7  2  -0.48200   -178.571103212000   -268.953797143000    114.596255907000
      22    8  1   0.96400    -90.106928417100   -122.964278091000    556.805795353000
      23    8  2  -0.48200    -90.059654233300   -123.347825629000    556.414443289000
      24    8  2  -0.48200    -90.154202600900   -122.580730554000    557.197147417000
      25    9  1   0.96400   -538.029833157000    580.907634009000     18.958468323100
      26    9  2  -0.48200   -537.577810122000    581.220925474000     18.963329811500
      27    9  2  -0.48200   -538.481856192000    580.594342544000     18.953606834700
      28   10  1   0.96400    313.078634362000    448.600582532000    505.962635241000
      29   10  2  -0.48200    313.303579581000    448.163551441000    505.715848948000
      30   10  2  -0.48200    312.853689143000    449.037613622000    506.209421534000
      31   11  1   0.96400    421.090765664000   -560.484406915000   -487.625907562000
      32   11  2  -0.48200    421.005525068000   -561.024422528000   -487.565764582000
      33   11  2  -0.48200    421.176006260000   -559.944391302000   -487.686050542000
      34   12  1   0.96400    506.262739430000   -353.005994977000   -420.122209813000
      35   12  2  -0.48200    506.351712839000   -353.066300191000   -420.661604857000
      36   12  2  -0.48200    506.173766020000   -352.945689763000   -419.582814769000
      37   13  1   0.96400    188.937535372000    130.899513815000   -168.416791617000
      38   13  2  -0.48200    189.336827300000    131.195960142000   -168.651707626000
      39   13  2  -0.48200    188.538243444000    130.603067488000   -168.181875608000
      40   14  1   0.96400   -365.123361042000    478.567136713000   -114.613060518000
      41   14  2  -0.48200   -365.563658588000    478.503418899000   -114.289675126000
      42   14  2  -0.48200   -364.683063497000    478.630854526000   -114.936445911000
      43   15  1   0.96400   -377.157808268000   -251.434589134000   -514.080121220000
      44   15  2  -0.48200   -377.480164804000   -251.577354545000   -513.657978707000
      45   15  2  -0.48200   -376.835451733000   -251.291823723000   -514.502263733000
      46   16  1   0.96400   -177.559700737000   -171.703679165000   -254.315898293000
      47   16  2  -0.48200   -177.870884230000   -172.052950531000   -254.026633109000
      48   16  2  -0.48200   -177.248517244000   -171.354407799000   -254.605163477000
      49   17  1   0.96400   -430.277601685000    553.569146091000   -214.788715284000
      50   17  2  -0.48200   -430.020416977000    553.720423225000   -214.326685789000
      51   17  2  -0.48200   -430.534786394000    553.417868957000   -215.250744780000
      52   18  1   0.96400     11.347828116700    184.594618393000    325.458940016000
      53   18  2  -0.48200     11.308028951000    184.091466905000    325.677468290000
      54   18  2  -0.48200     11.387627282500    185.097769881000    325.240411742000
      55   19  1   0.96400    553.621921355000    100.304600162000    525.499015048000
      56   19  2  -0.48200    553.433977387000    100.776731278000    525.288612400000
      57   19  2  -0.48200    553.809865323000     99.832469046100    525.709417695000
      58   20  1   0.96400    107.629409176000    196.967408309000   -102.268319925000
      59   20  2  -0.48200    107.457810109000    196.457817599000   -102.152686590000
      60   20  2  -0.48200    107.801008243000    197.476999019000   -102.383953259000
      61   21  1   0.96400    518.631509604000    582.105692173000    537.505574592000
      62   21  2  -0.48200    518.470821640000    582.355905522000    537.042894726000
      63   21  2  -0.48200    518.792197568000    581.855478823000    537.968254457000
      64   22  1   0.96400    406.211446184000     68.284525232300   -230.745321719000
      65   22  2  -0.48200    406.641352711000     68.406790922000   -230.424804202000
      66   22  2  -0.48200    405.781539656000     68.162259542700   -231.065839237000
      67   23  1   0.96400   -213.137292629000   -566.261722216000     35.405532043900
      68   23  2  -0.48200   -213.309103802000   -566.721179731000     35.654288375700
      69   23  2  -0.48200   -212.965481457000   -565.802264701000     35.156775712000
      70   24  1   0.96400    -24.111787307200    444.973950809000    348.080776790000
      71   24  2  -0.48200    -24.256181016400    444.467081863000    348.238048303000
      72   24  2  -0.48200    -23.967393598100    445.480819754000    347.923505277000
      73   25  1   0.96400    377.325262261000   -304.223669469000    449.994576002000
      74   25  2  -0.48200    377.810070182000   -304.169693295000    449.740513308000
      75   25  2  -0.48200    376.840454340000   -304.277645643000    450.248638696000
      76   26  1   0.96400    243.224990462000   -143.515524217000   -441.086408794000
      77   26  2  -0.48200    243.436368747000   -144.013527570000   -440.987353851000
      78   26  2  -0.48200    243.013612177000   -143.017520865000   -441.185463736000
      79   27  1   0.96400    472.433977922000     79.362709058800    525.713428670000
      80   27  2  -0.48200    472.211415563000     79.456948216400    525.219379100000
      81   27  2  -0.48200    472.656540280000     79.268469901300    526.207478240000
      82   28  1   0.96400   -522.969289254000   -340.864141695000    537.327877286000
      83   28  2  -0.48200   -522.679859199000   -340.691255617000    537.762435276000
      84   28  2  -0.48200   -523.258719310000   -341.037027772000    536.893319295000
      85   29  1   0.96400   -479.594815828000    560.423933557000    234.767964464000
      86   29  2  -0.48200   -479.467474373000    559.914329080000    234.604907938000
      87   29  2  -0.48200   -479.722157283000    560.933538034000    234.931020991000
      88   30  1   0.96400    403.219111927000   -252.540903532000   -169.860363676000
      89   30  2  -0.48200    403.766828248000   -252.491428625000   -169.868049072000
      90   30  2  -0.48200    402.671395606000   -252.590378438000   -169.852678280000
      91   31  1   0.96400   -447.958915325000   -540.522749098000    506.305955188000
      92   31  2  -0.48200   -448.232000198000   -540.360413366000    506.754922628000
      93   31  2  -0.48200   -447.685830452000   -540.685084830000    505.856987748000
      94   32  1   0.96400    550.299871506000   -461.481732254000   -254.525880657000
      95   32  2  -0.48200    549.929848393000   -461.339731074000   -254.144542800000
      96   32  2  -0.48200    550.669894618000   -461.623733434000   -254.907218514000
      97   33  1   0.96400    572.633986547000    416.803265702000   -229.232969122000
      98   33  2  -0.48200    572.719277497000    416.917826482000   -229.764101197000
      99   33  2  -0.48200    572.548695596000    416.688704922000   -228.701837046000
     100   34  1   0.96400    274.638445033000   -479.007096281000    102.800020638000
     101   34  2  -0.48200    274.354851061000   -478.724882152000    103.177419159000
     102   34  2  -0.48200    274.922039006000   -479.289310410000    102.422622116000
     103   35  1   0.96400   -418.683425727000    110.866286437000   -493.520231667000
     104   35  2  -0.48200   -418.351985800000    110.939743398000   -493.952957504000
     105   35  2  -0.48200   -419.014865653000    110.792829476000   -493.087505830000
     106   36  1   0.96400    -97.771028879900    -66.260880292100    566.032546081000
     107   36  2  -0.48200    -97.859221217700    -65.725230753600    565.944218942000
     108   36  2  -0.48200    -97.682836542100    -66.796529830600    566.120873220000
     109   37  1   0.96400   -327.242939262000   -236.966843263000   -437.946767252000
     110   37  2  -0.48200   -327.063796864000   -237.469411299000   -437.813225607000
     111   37  2  -0.48200   -327.422081661000   -236.464275228000   -438.080308897000
     112   38  1   0.96400    -72.921537660800    496.394975046000    120.060798669000
     113   38  2  -0.48200    -73.313762442500    496.780215807000    120.076587172000
     114   38  2  -0.48200    -72.529312879100    496.009734285000    120.045010167000
     115   39  1   0.96400    582.023137196000   -503.342907511000    386.188869000000
     116   39  2  -0.48200    582.383455871000   -503.512233068000    386.568341408000
     117   39  2  -0.48200    581.662818521000   -503.173581953000    385.809396593000
     118   40  1   0.96400   -134.322481443000   -314.850467968000    -71.391695358000
     119   40  2  -0.48200   -134.103006084000   -314.761653240000    -71.888125122300
     120   40  2  -0.48200   -134.541956803000   -314.939282696000    -70.895265593800
     121   41  1   0.96400   -470.814850641000    -86.419866897200    153.503838182000
     122   41  2  -0.48200   -470.877675138000    -86.551542079900    154.034135013000
     123   41  2  -0.48200   -470.752026144000    -86.288191714500    152.973541351000
     124   42  1   0.96400   -412.972887320000    343.600130612000   -151.075507404000
     125   42  2  -0.48200   -412.687943478000    343.650910538000   -150.607823317000
     126   42  2  -0.48200   -413.257831162000    343.549350686000   -151.543191492000
     127   43  1   0.96400    134.586846139000   -484.556585092000     11.479565356900
     128   43  2  -0.48200    134.332384594000   -484.738041883000     11.026991876400
     129   43  2  -0.48200    134.841307684000   -484.375128301000     11.932138837400
     130   44  1   0.96400    257.772080249000   -404.720221438000   -490.255272025000
     131   44  2  -0.48200    257.940527799000   -404.202373848000   -490.332468500000
     132   44  2  -0.48200    257.603632698000   -405.238069029000   -490.178075550000
     133   45  1   0.96400    395.648785803000   -261.729626989000    212.612579875000
     134   45  2  -0.48200    395.497181378000   -261.384223342000    213.012845310000
     135   45  2  -0.48200    395.800390228000   -262.075030637000    212.212314439000
     136   46  1   0.96400    293.811577033000    -66.022049546800    533.113495798000
     137   46  2  -0.48200    293.402796660000    -66.388341969800    533.078446297000
     138   46  2  -0.48200    294.220357406000    -65.655757123800    533.148545299000
     139   47  1   0.96400    422.921425438000   -546.552777384000    290.971804441000
     140   47  2  -0.48200    422.476586115000   -546.852486085000    290.850179317000
     141   47  2  -0.48200    423.366264762000   -546.253068683000    291.093429566000
     142   48  1   0.96400    123.414768373000    354.048097027000    590.989983786000
     143   48  2  -0.48200    123.647441524000    353.645675610000    591.283956927000
     144   48  2  -0.48200    123.182095223000    354.450518444000    590.696010644000
     145   49  1   0.96400    242.077556470000    519.632846600000    169.015772932000
     146   49  2  -0.48200    241.580683877000    519.864979105000    168.974154105000
     147   49  2  -0.48200    242.574429063000    519.400714096000    169.057391759000
     148   50  1   0.96400    190.307962603000    -39.713224149000     63.142592953200
     149   50  2  -0.48200    190.373709937000    -39.167495336200     63.161496682600
     150   50  2  -0.48200    190.242215269000    -40.258952961800     63.123689223800
     151   51  1   0.96400    119.894678261000     87.075398915400   -149.677140347000
     152   51  2  -0.48200    119.792803022000     87.322115268100   -149.196253170000
     153   51  2  -0.48200    119.996553499000     86.828682562600   -150.158027524000
     154   52  1   0.96400   -128.340188198000   -248.440657012000   -529.943488202000
     155   52  2  -0.48200   -127.792209149000   -248.461489139000   -529.985737269000
     156   52  2  -0.48200   -128.888167248000   -248.419824885000   -529.901239136000
     157   53  1   0.96400    364.425388638000    519.962430295000   -242.868222598000
     158   53  2  -0.48200    364.177630316000    519.611043082000   -243.211213619000
     159   53  2  -0.48200    364.673146959000    520.313817508000   -242.525231577000
     160   54  1   0.96400   -207.572448543000     38.299743645300    -80.081167105100
     161   54  2  -0.48200   -208.025426337000     38.165899419900    -80.362941557300
     162   54  2  -0.48200   -207.119470750000     38.433587870600    -79.799392652900
     163   55  1   0.96400    526.656132755000    434.969120745000    269.211583491000
     164   55  2  -0.48200    526.374677460000    435.405081544000    269.393850050000
     165   55  2  -0.48200    526.937588050000    434.533159945000    269.029316933000
     166   56  1   0.96400   -433.717532880000   -189.123306527000   -239.924164952000
     167   56  2  -0.48200   -433.396212998000   -188.743681519000   -239.689349307000
     168   56  2  -0.48200   -434.038852762000   -189.502931534000   -240.158980597000
     169   57  1   0.96400   -544.309427870000    433.261276254000    233.995873278000
     170   57  2  -0.48200   -544.434707880000    433.452073063000    233.495471942000
     171   57  2  -0.48200   -544.184147860000    433.070479444000    234.496274613000
     172   58  1   0.96400   -249.954013731000   -541.148573746000   -251.677758093000
     173   58  2  -0.48200   -249.854188303000   -541.126114767000   -252.218156537000
     174   58  2  -0.48200   -250.053839159000   -541.171032725000   -251.137359649000
     175   59  1   0.96400   -257.673431381000   -365.412504204000    563.034267369000
     176   59  2  -0.48200   -257.704408486000   -364.958461124000    563.343112476000
     177   59  2  -0.48200   -257.642454275000   -365.866547285000    562.725422262000
     178   60  1   0.96400   -267.917672976000    -11.648433613000    503.792616669000
     179   60  2  -0.48200   -268.317052045000    -11.337436542200    504.007737988000
     180   60  2  -0.48200   -267.518293908000    -11.959430683700    503.577495350000
     181   61  1   0.96400      8.548620832370   -422.948539612000   -204.202567634000
     182   61  2  -0.48200      8.663987436350   -422.412114891000   -204.240502645000
     183   61  2  -0.48200      8.433254228390   -423.484964333000   -204.164632624000
     184   62  1   0.96400    546.919802609000     77.329966634500   -130.146806411000
     185   62  2  -0.48200    546.415458059000     77.220708757500   -130.337067523000
     186   62  2  -0.48200    547.424147160000     77.439224511500   -129.956545300000
     187   63  1   0.96400    565.631640376000    312.904342467000    468.821059365000
     188   63  2  -0.48200    566.070248521000    313.107749867000    468.558860350000
     189   63  2  -0.48200    565.193032230000    312.700935066000    469.083258381000
     190   64  1   0.96400    213.041204471000   -211.412578172000      0.652257682531
     191   64  2  -0.48200    213.171243775000   -211.535339593000      1.172372490030
     192   64  2  -0.48200    212.911165167000   -211.289816752000      0.132142875030
     193   65  1   0.96400    294.518851254000    -51.841193680800    473.429959574000
     194   65  2  -0.48200    294.577938146000    -51.785732251600    472.885962544000
     195   65  2  -0.48200    294.459764362000    -51.896655110100    473.973956604000
     196   66  1   0.96400    429.378100940000   -223.405276134000    -65.116891981200
     197   66  2  -0.48200    429.320677947000   -223.578164060000    -64.597938837800
     198   66  2  -0.48200    429.435523934000   -223.232388209000    -65.635845124700
     199   67  1   0.96400     38.726858211600   -441.538019765000     16.321413103000
     200   67  2  -0.48200     39.267857643000   -441.438975455000     16.324549947700
     201   67  2  -0.48200     38.185858780200   -441.637064076000     16.318276258400
     202   68  1   0.96400   -208.093324915000   -432.415962710000    238.118918182000
     203   68  2  -0.48200   -208.073113945000   -431.953701656000    237.821586323000
     204   68  2  -0.48200   -208.113535885000   -432.878223764000    238.416250041000
     205   69  1   0.96400    244.957015585000    577.263895859000    397.624890887000
     206   69  2  -0.48200    244.985225443000    576.909941330000    397.204866608000
     207   69  2  -0.48200    244.928805727000    577.617850388000    398.044915167000
     208   70  1   0.96400    -15.162117474200   -448.998809530000    266.218235094000
     209   70  2  -0.48200    -15.080524355900   -449.432677960000    266.546260625000
     210   70  2  -0.48200    -15.243710592400   -448.564941101000    265.890209563000
     211   71  1   0.96400     40.715240250700   -544.553150339000    298.600748393000
     212   71  2  -0.48200     40.804676453200   -545.081896890000    298.478567173000
     213   71  2  -0.48200     40.625804048200   -544.024403788000    298.722929614000
     214   72  1   0.96400    105.880038503000   -428.267140172000   -487.813688707000
     215   72  2  -0.48200    106.260647321000   -428.069925448000   -488.158280176000
     216   72  2  -0.48200    105.499429684000   -428.464354896000   -487.469097239000
     217   73  1   0.96400    474.860349513000   -378.812679383000    -81.416913934600
     218   73  2  -0.48200    475.171416093000   -378.664786463000    -80.988118800600
     219   73  2  -0.48200    474.549282932000   -378.960572303000    -81.845709068600
     220   74  1   0.96400    261.195386897000    358.558850191000    337.277517750000
     221   74  2  -0.48200    261.481721071000    358.566626572000    337.747041199000
     222   74  2  -0.48200    260.909052722000    358.551073810000    336.807994302000
     223   75  1   0.96400   -178.437303349000    320.798306805000    480.303916231000
     224   75  2  -0.48200   -178.852917322000    321.153921563000    480.361389428000
     225   75  2  -0.48200   -178.021689375000    320.442692046000    480.246443034000
     226   76  1   0.96400     14.538738187100   -474.374150694000    130.773993354000
     227   76  2  -0.48200     14.417390922200   -474.133973828000    130.294316469000
     228   76  2  -0.48200     14.660085452000   -474.614327560000    131.253670239000
     229   77  1   0.96400   -400.262070796000    -86.407638955800    409.776004180000
     230   77  2  -0.48200   -399.977794162000    -86.154821048800    409.378801585000
     231   77  2  -0.48200   -400.546347430000    -86.660456862700    410.173206775000
     232   78  1   0.96400     37.403318176000   -521.038682057000    496.704607058000
     233   78  2  -0.48200     37.887583029500   -521.272131778000    496.820748263000
     234   78  2  -0.48200     36.919053322600   -520.805232336000    496.588465853000
     235   79  1   0.96400    509.572247016000    463.708995020000    153.945295612000
     236   79  2  -0.48200    509.435266105000    463.543692474000    153.438924900000
     237   79  2  -0.48200    509.709227928000    463.874297567000    154.451666324000
     238   80  1   0.96400   -308.638731337000   -245.685508174000    -53.240262283000
     239   80  2  -0.48200   -308.136220420000   -245.851633967000    -53.389878455100
     240   80  2  -0.48200   -309.141242254000   -245.519382380000    -53.090646110900
     241   81  1   0.96400    551.603141108000   -537.596915963000   -167.603176315000
     242   81  2  -0.48200    552.067986546000   -537.877633244000   -167.690449027000
     243   81  2  -0.48200    551.138295669000   -537.316198681000   -167.515903602000
     244   82  1   0.96400    -22.999063683000    574.119794086000    376.222918606000
     245   82  2  -0.48200    -22.849051098100    573.718216170000    375.878344373000
     246   82  2  -0.48200    -23.149076268000    574.521372002000    376.567492838000
     247   83  1   0.96400   -527.817213252000   -119.959561017000    202.582172385000
     248   83  2  -0.48200   -527.894407900000   -119.424181893000    202.681722270000
     249   83  2  -0.48200   -527.740018604000   -120.494940141000    202.482622500000
     250   84  1   0.96400    153.268295708000    328.661814115000    463.764494740000
     251   84  2  -0.48200    153.180226141000    329.138033821000    463.503806146000
     252   84  2  -0.48200    153.356365275000    328.185594409000    464.025183333000
     253   85  1   0.96400   -442.186687611000    465.619395068000    232.240789894000
     254   85  2  -0.48200   -442.218875237000    465.369753931000    232.729812653000
     255   85  2  -0.48200   -442.154499985000    465.869036205000    231.751767134000
     256   86  1   0.96400   -457.445774260000   -225.831300758000   -143.471370132000
     257   86  2  -0.48200   -457.889492898000   -225.691860804000   -143.764917862000
     258   86  2  -0.48200   -457.002055622000   -225.970740711000   -143.177822402000
     259   87  1   0.96400   -169.661994340000    135.017706886000    368.995291406000
     260   87  2  -0.48200   -170.165049559000    135.205986035000    368.877027256000
     261   87  2  -0.48200   -169.158939121000    134.829427738000    369.113555556000
     262   88  1   0.96400    -66.188031196200    579.378183279000    241.765172789000
     263   88  2  -0.48200    -65.661819926600    579.236970138000    241.840409406000
     264   88  2  -0.48200    -66.714242465800    579.519396420000    241.689936172000
     265   89  1   0.96400    193.507968561000   -119.738286885000    530.921828426000
     266   89  2  -0.48200    193.776682959000   -119.803932309000    530.446451470000
     267   89  2  -0.48200    193.239254162000   -119.672641460000    531.397205382000
     268   90  1   0.96400    122.841162048000    238.451206107000    556.015442392000
     269   90  2  -0.48200    122.681990132000    238.808224282000    555.628528547000
     270   90  2  -0.48200    123.000333964000    238.094187931000    556.402356237000
     271   91  1   0.96400    486.829385859000   -218.162719219000   -331.534964620000
     272   91  2  -0.48200    487.231287122000   -217.914713187000   -331.253063249000
     273   91  2  -0.48200    486.427484597000   -218.410725251000   -331.816865992000
     274   92  1   0.96400    150.128355509000   -288.929828909000   -249.262130046000
     275   92  2  -0.48200    149.777865686000   -289.330781075000   -249.399586385000
     276   92  2  -0.48200    150.478845331000   -288.528876743000   -249.124673708000
     277   93  1   0.96400     -7.128636524260    335.744530934000   -225.696608934000
     278   93  2  -0.48200     -7.340741871610    335.902308585000   -225.214304534000
     279   93  2  -0.48200     -6.916531176910    335.586753282000   -226.178913334000
     280   94  1   0.96400   -142.221336702000   -178.326009541000     38.690342471700
     281   94  2  -0.48200   -142.630281678000   -178.614252193000     38.461912657000
     282   94  2  -0.48200   -141.812391726000   -178.037766889000     38.918772286400
     283   95  1   0.96400   -278.971540110000   -298.557481456000    166.704046682000
     284   95  2  -0.48200   -279.310481934000   -298.769128008000    167.081967542000
     285   95  2  -0.48200   -278.632598285000   -298.345834904000    166.326125821000
     286   96  1   0.96400    435.544361380000    445.670992299000     52.686558867400
     287   96  2  -0.48200    435.685313549000    446.139656775000     52.937529173300
     288   96  2  -0.48200    435.403409211000    445.202327822000     52.435588561600
     289   97  1   0.96400    232.563901957000    384.125951573000    158.116506008000
     290   97  2  -0.48200    232.100645026000    384.310030363000    158.348902252000
     291   97  2  -0.48200    233.027158889000    383.941872784000    157.884109763000
     292   98  1   0.96400    236.012394298000   -150.409918294000   -505.717699752000
     293   98  2  -0.48200    235.863673001000   -149.999789332000   -506.052626923000
     294   98  2  -0.48200    236.161115595000   -150.820047256000   -505.382772580000
     295   99  1   0.96400    315.634858117000   -428.269943713000   -350.239273298000
     296   99  2  -0.48200    315.202692345000   -428.329374809000   -350.574237013000
     297   99  2  -0.48200    316.067023888000   -428.210512616000   -349.904309582000
     298  100  1   0.96400    312.414571959000    557.741152372000    385.830732600000
     299  100  2  -0.48200    312.525567405000    557.263066235000    386.078953582000
     300  100  2  -0.48200    312.303576514000    558.219238510000    385.582511618000
     301  101  1   0.96400   -499.338649278000    187.873543920000   -344.780477205000
     302  101  2  -0.48200   -498.977934897000    188.261812896000   -344.927556562000
     303  101  2  -0.48200   -499.699363659000    187.485274943000   -344.633397848000
     304  102  1   0.96400   -191.156387364000    478.290219613000   -289.916140805000
     305  102  2  -0.48200   -191.476287894000    478.020122261000   -290.272807416000
     306  102  2  -0.48200   -190.836486835000    478.560316966000   -289.559474195000
     307  103  1   0.96400     24.666939140900    443.147779707000    385.027877540000
     308  103  2  -0.48200     24.775355647400    443.015635798000    384.505111963000
     309  103  2  -0.48200     24.558522634400    443.279923617000    385.550643117000
     310  104  1   0.96400    185.708233938000   -154.582235820000    414.850171975000
     311  104  2  -0.48200    185.441638337000   -154.894924896000    415.215756886000
     312  104  2  -0.48200    185.974829538000   -154.269546743000    414.484587064000
     313  105  1   0.96400   -191.984037549000     45.761826362500    347.813710165000
     314  105  2  -0.48200   -192.398956277000     46.024344374000    348.061554355000
     315  105  2  -0.48200   -191.569118820000     45.499308351000    347.565865975000
     316  106  1   0.96400    -27.001483995300    -45.096387003600    226.056853388000
     317  106  2  -0.48200    -26.689941342600    -45.037470307500    225.607442665000
     318  106  2  -0.48200    -27.313026648100    -45.155303699700    226.506264112000
     319  107  1   0.96400   -410.421419530000     30.567706076600    421.730180945000
     320  107  2  -0.48200   -410.229883687000     30.095327189200    421.523608422000
     321  107  2  -0.48200   -410.612955374000     31.040084963900    421.936753468000
     322  108  1   0.96400   -232.607779482000    219.505113274000    588.891700630000
     323  108  2  -0.48200   -232.376466067000    219.140553752000    589.232421131000
     324  108  2  -0.48200   -232.839092896000    219.869672795000    588.550980130000
     325  109  1   0.96400    504.905202280000     -5.231469380810    -64.000227993600
     326  109  2  -0.48200    505.427363667000     -5.087016574830    -63.905460531400
     327  109  2  -0.48200    504.383040892000     -5.375922186800    -64.094995455800
     328  110  1   0.96400    500.296790794000   -387.650948306000    401.229987112000
     329  110  2  -0.48200    500.624499529000   -387.438933335000    401.617487612000
     330  110  2  -0.48200    499.969082060000   -387.862963277000    400.842486612000
     331  111  1   0.96400   -179.740201054000     15.654483189800   -512.964325373000
     332  111  2  -0.48200   -179.751896176000     15.149226606500   -512.747348395000
     333  111  2  -0.48200   -179.728505931000     16.159739773200   -513.181302352000
     334  112  1   0.96400    112.716212595000   -253.794754928000     42.067985703200
     335  112  2  -0.48200    113.079673561000   -253.838848005000     42.478414657700
     336  112  2  -0.48200    112.352751628000   -253.750661852000     41.657556748700
     337  113  1   0.96400   -217.663179340000    267.836993709000   -503.467406141000
     338  113  2  -0.48200   -217.605346025000    267.535688535000   -503.923882317000
     339  113  2  -0.48200   -217.721012655000    268.138298883000   -503.010929965000
     340  114  1   0.96400   -239.335254983000    505.866348276000    221.079881255000