LAMMPS Atom File

         3000 atoms
         2000 bonds
         1000 angles
           0 dihedrals
           0 impropers

           2 atom types
           1 bond types
           1 angle types

         0.0  92.4719299113 xlo xhi
         0.0  92.4719299113 ylo yhi
         0.0  92.4719299113 zlo zhi

Masses

         1    1.0e-20
         2   14.00670

Atoms

       1    1  1   0.96400    -26.309793584800     36.232964502300      9.681968286090
       2    1  2  -0.48200    -26.449361032900     36.302060805900     10.209459165900
       3    1  2  -0.48200    -26.170226136700     36.163868198600      9.154477406300
       4    2  1   0.96400     20.841614639600     -4.862388282180      9.666479391150
       5    2  2  -0.48200     20.756756894700     -5.103868632530     10.153291884300
       6    2  2  -0.48200     20.926472384600     -4.620907931830      9.179666897960
       7    3  1   0.96400    -32.388245379000     44.151417903100     41.824909391900
       8    3  2  -0.48200    -32.539369750600     44.429460849500     42.274746633800
       9    3  2  -0.48200    -32.237121007400     43.873374956700     41.375072149900
      10    4  1   0.96400     24.955427943900    -35.255360826600     -9.182638175670
      11    4  2  -0.48200     24.804253303600    -35.327079091100     -9.706568246080
      12    4  2  -0.48200     25.106602584100    -35.183642562200     -8.658708105270
      13    5  1   0.96400    -16.781957697700     45.913790178200      6.116547006780
      14    5  2  -0.48200    -16.698522315600     46.221978836700      5.668709661560
      15    5  2  -0.48200    -16.865393079700     45.605601519700      6.564384352000
      16    6  1   0.96400    -14.268987163900     41.302531099100    -43.767456959700
      17    6  2  -0.48200    -13.962605831900     40.955529357600    -43.470437986000
      18    6  2  -0.48200    -14.575368496000     41.649532840700    -44.064475933400
      19    7  1   0.96400     35.068588266100      7.255806907820     -3.655808431800
      20    7  2  -0.48200     35.374727053000      7.097009695290     -4.084250363070
      21    7  2  -0.48200     34.762449479200      7.414604120360     -3.227366500540
      22    8  1   0.96400     36.759512839000     -7.554291719930     18.431225093200
      23    8  2  -0.48200     37.216817232100     -7.694579165640     18.702688027300
      24    8  2  -0.48200     36.302208445900     -7.414004274220     18.159762159000
      25    9  1   0.96400     15.847574827300     26.699605219900    -39.538421407800
      26    9  2  -0.48200     16.084042174800     26.910667218200    -39.088937229600
      27    9  2  -0.48200     15.611107479700     26.488543221700    -39.987905586000
      28   10  1   0.96400     28.620384083500     -7.198502311500     42.850011099500
      29   10  2  -0.48200     29.114459028600     -7.438748847540     42.875925390900
      30   10  2  -0.48200     28.126309138300     -6.958255775460     42.824096808000
      31   11  1   0.96400     -1.468086570470    -13.814422458200    -31.674123621600
      32   11  2  -0.48200     -1.538714634160    -14.233470862700    -32.023279906500
      33   11  2  -0.48200     -1.397458506790    -13.395374053600    -31.324967336700
      34   12  1   0.96400    -20.610502298800    -13.300716986300     15.684719584400
      35   12  2  -0.48200    -21.133440356100    -13.416699064900     15.559883909600
      36   12  2  -0.48200    -20.087564241600    -13.184734907700     15.809555259200
      37   13  1   0.96400    -24.773749730000    -33.253752078100     31.623264924300
      38   13  2  -0.48200    -24.461420721500    -33.252536706000     31.170551865800
      39   13  2  -0.48200    -25.086078738500    -33.254967450200     32.075977982700
      40   14  1   0.96400    -28.995339335300    -16.020562710300     31.014815815000
      41   14  2  -0.48200    -28.813175458400    -15.505221600900     31.075970233200
      42   14  2  -0.48200    -29.177503212300    -16.535903819700     30.953661396800
      43   15  1   0.96400     30.743347240800     37.731337549400    -42.403265250600
      44   15  2  -0.48200     30.646773268600     38.058164622200    -41.971573772400
      45   15  2  -0.48200     30.839921213000     37.404510476500    -42.834956728800
      46   16  1   0.96400     21.454188398400     33.360506191100     36.125472910800
      47   16  2  -0.48200     21.367401564400     32.832415549300     36.252312649900
      48   16  2  -0.48200     21.540975232400     33.888596833000     35.998633171600
      49   17  1   0.96400    -39.500428998000    -46.131705693600     11.337804272900
      50   17  2  -0.48200    -39.880674248700    -46.527241957001     11.299534002400
      51   17  2  -0.48200    -39.120183747200    -45.736169430300     11.376074543500
      52   18  1   0.96400    -17.990820440400    -12.472154303600     22.520384001200
      53   18  2  -0.48200    -18.478916177300    -12.613746621000     22.730655652500
      54   18  2  -0.48200    -17.502724703600    -12.330561986300     22.310112349800
      55   19  1   0.96400     -7.333428842910     -2.148696981200     26.244294051600
      56   19  2  -0.48200     -7.372077803870     -1.793035828930     26.662039671000
      57   19  2  -0.48200     -7.294779881950     -2.504358133480     25.826548432100
      58   20  1   0.96400    -29.736465228000     -6.760695335460    -34.224661449900
      59   20  2  -0.48200    -30.039448864300     -7.112024987930    -34.520073689700
      60   20  2  -0.48200    -29.433481591800     -6.409365682990    -33.929249210100
      61   21  1   0.96400     40.106596273300    -38.321235325300     18.659043754300
      62   21  2  -0.48200     40.186821391700    -38.079311202100     18.171666437500
      63   21  2  -0.48200     40.026371154900    -38.563159448500     19.146421071200
      64   22  1   0.96400      9.778460485130    -23.829276525100     37.073309368900
      65   22  2  -0.48200      9.240594258450    -23.844402603400     37.187200211200
      66   22  2  -0.48200     10.316326711800    -23.814150446700     36.959418526600
      67   23  1   0.96400    -21.062898785200    -24.036869815200      6.796464570070
      68   23  2  -0.48200    -21.499937842300    -24.349057475100      6.914937046410
      69   23  2  -0.48200    -20.625859728200    -23.724682155300      6.677992093730
      70   24  1   0.96400     -4.562977231950     -9.675725142110     41.863210898600
      71   24  2  -0.48200     -4.843259212720     -9.206167549510     41.922012926500
      72   24  2  -0.48200     -4.282695251170    -10.145282734700     41.804408870600
      73   25  1   0.96400    -34.579136442600      7.260864545380    -31.156201162700
      74   25  2  -0.48200    -34.561321313900      7.564302109790    -30.697825480900
      75   25  2  -0.48200    -34.596951571400      6.957426980960    -31.614576844500
      76   26  1   0.96400    -44.458174448400     42.780923174700      1.278672327730
      77   26  2  -0.48200    -44.854209289800     42.736175748000      0.899655082530
      78   26  2  -0.48200    -44.062139606900     42.825670601400      1.657689572940
      79   27  1   0.96400    -18.607974943800     41.790846102200     -2.309981032860
      80   27  2  -0.48200    -18.664247622100     42.250583562500     -2.606586584540
      81   27  2  -0.48200    -18.551702265600     41.331108641900     -2.013375481170
      82   28  1   0.96400    -11.078011172200    -26.131705278600     24.964068760700
      83   28  2  -0.48200    -11.556403940800    -26.274723703700     25.194689854700
      84   28  2  -0.48200    -10.599618403600    -25.988686853500     24.733447666600
      85   29  1   0.96400     22.318726911800     -8.419485986590     21.044215599200
      86   29  2  -0.48200     22.241150931100     -7.875419564420     21.065980145600
      87   29  2  -0.48200     22.396302892500     -8.963552408760     21.022451052700
      88   30  1   0.96400     39.293189201100    -34.850898370300    -23.128599692900
      89   30  2  -0.48200     38.996140457700    -34.501391015700    -22.825108913600
      90   30  2  -0.48200     39.590237944600    -35.200405724900    -23.432090472100
      91   31  1   0.96400    -26.274173669500      6.391212745090     15.040945148200
      92   31  2  -0.48200    -26.448760697100      5.979532048480     14.720729012000
      93   31  2  -0.48200    -26.099586642000      6.802893441700     15.361161284300
      94   32  1   0.96400     39.506090778500    -19.609365266700    -34.209701790900
      95   32  2  -0.48200     39.063564676200    -19.410125533100    -33.950908094500
      96   32  2  -0.48200     39.948616880800    -19.808605000400    -34.468495487300
      97   33  1   0.96400    -44.482614374500     14.678205778700    -36.660046108600
      98   33  2  -0.48200    -44.080952956200     15.015423063700    -36.825734393700
      99   33  2  -0.48200    -44.884275792700     14.340988493700    -36.494357823500
     100   34  1   0.96400     26.773910854100    -45.244514462300     19.819012780800
     101   34  2  -0.48200     26.859148495200    -44.885348058800     20.226730868700
     102   34  2  -0.48200     26.688673213000    -45.603680865700     19.411294692900
     103   35  1   0.96400    -30.662323693200     -9.604469366070     13.181382954200
     104   35  2  -0.48200    -30.399367641300    -10.003660991100     12.909353247600
     105   35  2  -0.48200    -30.925279745200     -9.205277741060     13.453412660800
     106   36  1   0.96400     25.123541568800     33.141053933300     40.951793525800
     107   36  2  -0.48200     25.469298788300     33.147554786000     40.524114108400
     108   36  2  -0.48200     24.777784349300     33.134553080700     41.379472943200
     109   37  1   0.96400     14.127031906800    -16.712811938200     19.644316886200
     110   37  2  -0.48200     14.353467638000    -16.850840137700     20.126162375700
     111   37  2  -0.48200     13.900596175700    -16.574783738700     19.162471396600
     112   38  1   0.96400     29.605685708000    -39.964431039700    -41.204772986800
     113   38  2  -0.48200     30.136087783300    -39.830360366000    -41.261329974600
     114   38  2  -0.48200     29.075283632600    -40.098501713500    -41.148215999000
     115   39  1   0.96400    -19.311735163500    -36.480758596000     11.005918831000
     116   39  2  -0.48200    -19.663462938600    -36.107903666700     10.806502748600
     117   39  2  -0.48200    -18.960007388300    -36.853613525300     11.205334913300
     118   40  1   0.96400    -14.168985116300    -17.314051086900     39.609121638100
     119   40  2  -0.48200    -14.070177352800    -17.081523545100     39.120585080400
     120   40  2  -0.48200    -14.267792879800    -17.546578628600     40.097658195800
     121   41  1   0.96400     39.157491949500    -27.272325511900    -32.887922340400
     122   41  2  -0.48200     39.370107215900    -27.529982950200    -33.324851846100
     123   41  2  -0.48200     38.944876683000    -27.014668073700    -32.450992834600
     124   42  1   0.96400      6.088950592760     33.130320415500     43.072487960700
     125   42  2  -0.48200      6.127381622990     33.593955289300     43.365857624600
     126   42  2  -0.48200      6.050519562530     32.666685541700     42.779118296800
     127   43  1   0.96400      8.754756899460     10.478604909300    -10.826906623300
     128   43  2  -0.48200      8.783242656160     10.060140461200    -10.471131318800
     129   43  2  -0.48200      8.726271142760     10.897069357500    -11.182681927800
     130   44  1   0.96400     45.991190668500     -5.519534038470    -45.010239283100
     131   44  2  -0.48200     46.468673286501     -5.791169701620    -44.983324305300
     132   44  2  -0.48200     45.513708050500     -5.247898375330    -45.037154261000
     133   45  1   0.96400    -27.741293466100     34.069121108400     -6.592111912120
     134   45  2  -0.48200    -28.019423221600     34.354061265700     -6.212700597260
     135   45  2  -0.48200    -27.463163710600     33.784180951000     -6.971523226980
     136   46  1   0.96400     38.035200101600     27.722272439100      9.952927050380
     137   46  2  -0.48200     38.256515626200     27.481932801500     10.395370602900
     138   46  2  -0.48200     37.813884577000     27.962612076700      9.510483497880
     139   47  1   0.96400    -25.452083014200    -17.800563050600    -41.481745162000
     140   47  2  -0.48200    -25.775357231900    -18.084413297100    -41.824415291600
     141   47  2  -0.48200    -25.128808796500    -17.516712804200    -41.139075032300
     142   48  1   0.96400     -7.591139815290     37.703373242200    -13.646045729500
     143   48  2  -0.48200     -8.128620740170     37.615476718800    -13.569309450100
     144   48  2  -0.48200     -7.053658890410     37.791269765500    -13.722782008900
     145   49  1   0.96400     28.388448966000     26.422454016300      4.847176384790
     146   49  2  -0.48200     28.018962386700     26.570835220500      4.467752234360
     147   49  2  -0.48200     28.757935545400     26.274072812200      5.226600535220
     148   50  1   0.96400    -13.052136046200    -10.376095686600    -19.625100238700
     149   50  2  -0.48200    -12.642524511600    -10.524272332900    -19.289299595200
     150   50  2  -0.48200    -13.461747580800    -10.227919040200    -19.960900882200
     151   51  1   0.96400     -0.280602816647     -4.822465157650    -33.356054994400
     152   51  2  -0.48200      0.000268447610     -4.351391284930    -33.314814973100
     153   51  2  -0.48200     -0.561474080904     -5.293539030370    -33.397295015600
     154   52  1   0.96400    -32.164764537800     45.255310493000    -16.806165280700
     155   52  2  -0.48200    -32.251123664600     45.509312031500    -16.326034757100
     156   52  2  -0.48200    -32.078405411000     45.001308954500    -17.286295804200
     157   53  1   0.96400      1.067288805060     14.026580370000     25.627831006800
     158   53  2  -0.48200      1.020993185510     13.858230520400     26.149381621600
     159   53  2  -0.48200      1.113584424610     14.194930219500     25.106280392100
     160   54  1   0.96400     42.644364352000      7.559277693090     40.889307149900
     161   54  2  -0.48200     42.336205204000      7.180593895780     41.142559042500
     162   54  2  -0.48200     42.952523500100      7.937961490400     40.636055257300
     163   55  1   0.96400      2.307223473950    -24.250745473700    -14.186507591900
     164   55  2  -0.48200      2.799975966260    -24.016535963600    -14.256084072800
     165   55  2  -0.48200      1.814470981630    -24.484954983800    -14.116931111100
     166   56  1   0.96400     -8.163500690480      8.314851518730     -1.991118528280
     167   56  2  -0.48200     -8.400522464120      8.121339087700     -1.534091594870
     168   56  2  -0.48200     -7.926478916850      8.508363949760     -2.448145461680
     169   57  1   0.96400    -10.631950761800    -29.425104537600    -10.565275700900
     170   57  2  -0.48200    -10.628927719400    -29.559207573100    -10.031883502700
     171   57  2  -0.48200    -10.634973804100    -29.291001502200    -11.098667899100
     172   58  1   0.96400     42.177461919600    -22.299173374900    -36.823604914000
     173   58  2  -0.48200     42.279062056800    -22.284095558100    -37.363928957100
     174   58  2  -0.48200     42.075861782300    -22.314251191700    -36.283280870900
     175   59  1   0.96400    -16.322547253500     -4.607702998200    -14.289948987500
     176   59  2  -0.48200    -16.169835411200     -4.247796937330    -14.676790971500
     177   59  2  -0.48200    -16.475259095800     -4.967609059080    -13.903107003500
     178   60  1   0.96400    -21.058381770500      8.766181813290    -20.215792177700
     179   60  2  -0.48200    -20.925972998200      8.250157183570    -20.352490745800
     180   60  2  -0.48200    -21.190790542900      9.282206443010    -20.079093609500
     181   61  1   0.96400    -16.283684909500     24.317716329800     10.535312636400
     182   61  2  -0.48200    -16.279635547400     24.849779990000     10.396057962800
     183   61  2  -0.48200    -16.287734271600     23.785652669500     10.674567310100
     184   62  1   0.96400    -10.597188085100     22.070398209700     14.578236481800
     185   62  2  -0.48200    -10.052829464100     22.093681917400     14.653280206800
     186   62  2  -0.48200    -11.141546706100     22.047114501900     14.503192756700
     187   63  1   0.96400    -44.295500402700    -26.133246165900     14.308332318800
     188   63  2  -0.48200    -44.128654475400    -26.599325599800     14.547982893400
     189   63  2  -0.48200    -44.462346330000    -25.667166732100     14.068681744300
     190   64  1   0.96400      8.674965605050     18.092891531900     -9.601342317040
     191   64  2  -0.48200      9.196695668310     17.921057545000     -9.573578634770
     192   64  2  -0.48200      8.153235541800     18.264725518700     -9.629105999310
     193   65  1   0.96400    -21.987913583200     30.486419285100      0.459455175092
     194   65  2  -0.48200    -21.554933981800     30.804506751000      0.577137071758
     195   65  2  -0.48200    -22.420893184600     30.168331819100      0.341773278426
     196   66  1   0.96400    -20.789463145100      8.004468426520    -43.485894337400
     197   66  2  -0.48200    -20.511753617100      8.418183759270    -43.253048806000
     198   66  2  -0.48200    -21.067172673100      7.590753093770    -43.718739868800
     199   67  1   0.96400     42.006841534100     43.868652495800     42.648880849600
     200   67  2  -0.48200     42.215789647000     43.853065069600     42.140355807700
     201   67  2  -0.48200     41.797893421300     43.884239922000     43.157405891600
     202   68  1   0.96400      7.256274894120      3.477534603870      7.085772574450
     203   68  2  -0.48200      6.798718179440      3.189593968780      6.984619010470
     204   68  2  -0.48200      7.713831608810      3.765475238970      7.186926138430
     205   69  1   0.96400     -3.005593288940     38.478317245300     29.724950374500
     206   69  2  -0.48200     -3.321797098440     38.085990689700     29.504507582400
     207   69  2  -0.48200     -2.689389479430     38.870643801000     29.945393166600
     208   70  1   0.96400      5.003419407290     -9.954983233710    -10.024860009500
     209   70  2  -0.48200      5.229532836710    -10.058992587000    -10.515323842500
     210   70  2  -0.48200      4.777305977860     -9.850973880410     -9.534396176550
     211   71  1   0.96400     25.354634644900     -2.122685543910     37.725913996000
     212   71  2  -0.48200     25.401265974700     -2.468951375810     37.301148775200
     213   71  2  -0.48200     25.308003315000     -1.776419712010     38.150679216700
     214   72  1   0.96400    -24.918532891300     -0.603783132740    -15.901038198800
     215   72  2  -0.48200    -25.101021034400     -0.725956153163    -16.405291935300
     216   72  2  -0.48200    -24.736044748100     -0.481610112317    -15.396784462400
     217   73  1   0.96400     17.038099437200    -36.898787587000    -35.373671613000
     218   73  2  -0.48200     17.318311710700    -36.616773491100    -35.753736254200
     219   73  2  -0.48200     16.757887163800    -37.180801682900    -34.993606971800
     220   74  1   0.96400    -21.637326627700      6.358129871630    -30.748734080800
     221   74  2  -0.48200    -21.736232865000      6.183295303010    -30.236727801700
     222   74  2  -0.48200    -21.538420390300      6.532964440260    -31.260740359900
     223   75  1   0.96400     -4.960333844420    -36.399087369000    -19.996118588200
     224   75  2  -0.48200     -5.232094217610    -36.627680309300    -19.576128627400
     225   75  2  -0.48200     -4.688573471240    -36.170494428700    -20.416108549100
     226   76  1   0.96400     31.179908020900      7.084440876660    -19.262750482400
     227   76  2  -0.48200     31.055288428800      6.559693521970    -19.154999978900
     228   76  2  -0.48200     31.304527613000      7.609188231350    -19.370500985900
     229   77  1   0.96400    -17.291071104500    -35.649661631300    -25.977249183200
     230   77  2  -0.48200    -17.068654260900    -35.770343173600    -25.488918646500
     231   77  2  -0.48200    -17.513487948000    -35.528980089100    -26.465579720000
     232   78  1   0.96400    -17.749776775800    -40.165024595300      0.805718846556
     233   78  2  -0.48200    -18.197705300400    -39.855088503600      0.881874318829
     234   78  2  -0.48200    -17.301848251300    -40.474960687000      0.729563374282
     235   79  1   0.96400     41.824654817000     -2.471031086730    -40.459920571400
     236   79  2  -0.48200     41.893285389300     -2.167853992760    -40.913653416000
     237   79  2  -0.48200     41.756024244700     -2.774208180710    -40.006187726900
     238   80  1   0.96400    -24.448912735900     33.566795794300    -21.418098997700
     239   80  2  -0.48200    -24.614371446900     33.338615550600    -21.890388306700
     240   80  2  -0.48200    -24.283454024900     33.794976038000    -20.945809688800
     241   81  1   0.96400     -0.450528954506     35.980375081100     28.056154239700
     242   81  2  -0.48200     -0.040627256009     36.068865558000     27.700275000300
     243   81  2  -0.48200     -0.860430653003     35.891884604300     28.412033479200
     244   82  1   0.96400     40.626271361300     18.489189751300      1.253461820690
     245   82  2  -0.48200     40.462660563400     17.965381916900      1.216626246520
     246   82  2  -0.48200     40.789882159200     19.012997585600      1.290297394860
     247   83  1   0.96400     34.814781467300    -37.684765904000     44.052473704000
     248   83  2  -0.48200     34.734545628800    -37.245456975400     43.731428729800
     249   83  2  -0.48200     34.895017305800    -38.124074832600     44.373518678300
     250   84  1   0.96400    -25.012940028300    -37.336708416400    -38.784336955500
     251   84  2  -0.48200    -25.119137196000    -37.176859495600    -38.268904628100
     252   84  2  -0.48200    -24.906742860700    -37.496557337100    -39.299769282900
     253   85  1   0.96400    -34.757855432300    -33.365028925700     31.435866278900
     254   85  2  -0.48200    -35.247373469100    -33.114462445400     31.426457206700
     255   85  2  -0.48200    -34.268337395600    -33.615595406000     31.445275351000
     256   86  1   0.96400     45.692274881500    -12.270897228400     29.862645790500
     257   86  2  -0.48200     45.348938475000    -12.386015408900     29.448679709200
     258   86  2  -0.48200     46.035611288100    -12.155779047900     30.276611871800
     259   87  1   0.96400     29.915571999400    -23.368534734100     35.362981412100
     260   87  2  -0.48200     30.061878807600    -23.543535784100     34.862512681400
     261   87  2  -0.48200     29.769265191200    -23.193533684100     35.863450142700
     262   88  1   0.96400     19.007076199200    -10.998745413500    -34.555458141700
     263   88  2  -0.48200     19.443524115000    -11.316070140100    -34.449070949400
     264   88  2  -0.48200     18.570628283400    -10.681420687000    -34.661845334100
     265   89  1   0.96400      5.794597582800     24.528085833200    -21.639753376600
     266   89  2  -0.48200      6.072219232240     24.415009441600    -21.178624382200
     267   89  2  -0.48200      5.516975933360     24.641162224900    -22.100882370900
     268   90  1   0.96400     38.960255565700      2.875683342680     42.239091340600
     269   90  2  -0.48200     38.697669734100      2.549195271990     41.882784982600
     270   90  2  -0.48200     39.222841397200      3.202171413380     42.595397698600
     271   91  1   0.96400    -16.175933202300     42.148431174400     33.787302284300
     272   91  2  -0.48200    -16.385138346500     41.754380665900     33.465654333300
     273   91  2  -0.48200    -15.966728058100     42.542481683000     34.108950235300
     274   92  1   0.96400      1.665515940320    -20.788872201100     33.915707969300
     275   92  2  -0.48200      1.900866054970    -20.969865776800     33.452726707200
     276   92  2  -0.48200      1.430165825680    -20.607878625300     34.378689231400
     277   93  1   0.96400    -17.378191234000     -7.903184234700     20.080881213400
     278   93  2  -0.48200    -17.588191155700     -7.465157139660     20.338819765900
     279   93  2  -0.48200    -17.168191312300     -8.341211329750     19.822942660800
     280   94  1   0.96400     -6.802099191760    -35.238560556000     14.368883903300
     281   94  2  -0.48200     -6.854813942410    -35.765822138200     14.516248685500
     282   94  2  -0.48200     -6.749384441110    -34.711298973800     14.221519121200
     283   95  1   0.96400    -40.214197688100    -28.297466798300     40.910140895500
     284   95  2  -0.48200    -39.917425274200    -28.017705757000     41.279139397100
     285   95  2  -0.48200    -40.510970102000    -28.577227839600     40.541142393900
     286   96  1   0.96400      8.353508586780     17.243848718200     26.534675001300
     287   96  2  -0.48200      8.671050437840     17.676427910500     26.655266937700
     288   96  2  -0.48200      8.035966735710     16.811269525800     26.414083064800
     289   97  1   0.96400     27.429748175100     10.835091189000      4.940804669950
     290   97  2  -0.48200     27.493125960500     10.701196559100      5.470479555510
     291   97  2  -0.48200     27.366370389800     10.968985818900      4.411129784380
     292   98  1   0.96400    -23.679323752600    -22.098168484600    -11.938743801400
     293   98  2  -0.48200    -23.912949126100    -21.859372680400    -11.501827621000
     294   98  2  -0.48200    -23.445698379000    -22.336964288800    -12.375659981900
     295   99  1   0.96400     41.496537166500    -22.322390770100     32.927996596300
     296   99  2  -0.48200     40.975987378600    -22.498142457800     32.953280239300
     297   99  2  -0.48200     42.017086954400    -22.146639082500     32.902712953200
     298  100  1   0.96400    -25.710237247100    -20.455489296000     36.799423646600
     299  100  2  -0.48200    -25.178789300600    -20.583638331800     36.859763557300
     300  100  2  -0.48200    -26.241685193600    -20.327340260200     36.739083735900
     301  101  1   0.96400     26.208537678100    -27.302885143100    -24.904456959300
     302  101  2  -0.48200     26.682827178600    -27.557309568300    -24.791241759100
     303  101  2  -0.48200     25.734248177500    -27.048460718000    -25.017672159400
     304  102  1   0.96400    -40.024035024500    -23.586220417200     45.871107428500
     305  102  2  -0.48200    -39.529796167500    -23.532901894300     45.635767063600
     306  102  2  -0.48200    -40.518273881400    -23.639538940200     46.106447793400
     307  103  1   0.96400    -43.387621360100    -10.225118003700     21.558536806900
     308  103  2  -0.48200    -43.413053452200    -10.101278622700     22.093809649900
     309  103  2  -0.48200    -43.362189268000    -10.348957384700     21.023263964000
     310  104  1   0.96400    -39.574537770800     41.056988385700     21.610674937200
     311  104  2  -0.48200    -39.959719747600     41.425583856800     21.745849725700
     312  104  2  -0.48200    -39.189355794000     40.688392914500     21.475500148700
     313  105  1   0.96400     31.808077088100    -16.534492010800    -13.746709909300
     314  105  2  -0.48200     31.862760188800    -17.081645356500    -13.735178436300
     315  105  2  -0.48200     31.753393987400    -15.987338665200    -13.758241382400
     316  106  1   0.96400     -2.429520476770      9.011458866660    -25.704660116200
     317  106  2  -0.48200     -2.454852778850      9.534233051530    -25.535647021800
     318  106  2  -0.48200     -2.404188174680      8.488684681790    -25.873673210700
     319  107  1   0.96400     -4.026085907790     24.000255441900    -27.767638800500
     320  107  2  -0.48200     -4.167128840720     23.625344129800    -28.144531887600
     321  107  2  -0.48200     -3.885042974860     24.375166754000    -27.390745713300
     322  108  1   0.96400     26.950724473600     18.980556738900    -34.692783055800
     323  108  2  -0.48200     26.601429517300     19.399859225200    -34.761182314000
     324  108  2  -0.48200     27.300019429800     18.561254252600    -34.624383797600
     325  109  1   0.96400    -28.532561935300      4.172087645750    -43.935622920600
     326  109  2  -0.48200    -28.793527138000      4.197119656540    -43.452124666800
     327  109  2  -0.48200    -28.271596732600      4.147055634960    -44.419121174400
     328  110  1   0.96400    -18.851314612100     13.122846045500    -13.344886565800
     329  110  2  -0.48200    -18.723286873900     13.351131681100    -12.861156716800
     330  110  2  -0.48200    -18.979342350300     12.894560409900    -13.828616414800
     331  111  1   0.96400    -10.850922035200     26.871381293000     -4.632334712000
     332  111  2  -0.48200    -10.365262812100     26.813768357100     -4.380708265440
     333  111  2  -0.48200    -11.336581258300     26.928994228900     -4.883961158550
     334  112  1   0.96400    -34.681463224200    -45.194584675600     -2.842130654510
     335  112  2  -0.48200    -34.671783889000    -44.645532764700     -2.872925290730
     336  112  2  -0.48200    -34.691142559300    -45.743636586500     -2.811336018300
     337  113  1   0.96400     29.876267506300     37.009211349000    -16.577652400300
     338  113  2  -0.48200     30.314732530700     36.677528057200    -16.592969592000
     339  113  2  -0.48200     29.437802481900     37.340894640700    -16.562335208500
     340  114  1   0.96400    -36.126632510500     27.136779744600     -4.544396554360