LAMMPS Atom File

         3000 atoms
         2000 bonds
         1000 angles
           0 dihedrals
           0 impropers

           2 atom types
           1 bond types
           1 angle types

         0.0  436.254267091 xlo xhi
         0.0  436.254267091 ylo yhi
         0.0  436.254267091 zlo zhi

Masses

         1    1.0e-20
         2   14.00670

Atoms

       1    1  1   0.96400   -125.254158183000    175.733469311000     46.038960377200
       2    1  2  -0.48200   -125.481539413000    175.323626595000     46.326756702400
       3    1  2  -0.48200   -125.026776954000    176.143312027000     45.751164052000
       4    2  1   0.96400    -30.107167434500    -45.261092740500    202.900095980000
       5    2  2  -0.48200    -30.552159912900    -45.267286020500    202.576919036000
       6    2  2  -0.48200    -29.662174956200    -45.254899460600    203.223272925000
       7    3  1   0.96400    187.828304292000   -101.054282522000   -169.008566377000
       8    3  2  -0.48200    188.318467583000   -101.025958425000   -169.256432658000
       9    3  2  -0.48200    187.338141000000   -101.082606619000   -168.760700096000
      10    4  1   0.96400   -107.368786208000   -166.803033206000     44.989684712500
      11    4  2  -0.48200   -107.857499947000   -167.041108740000     44.906144772300
      12    4  2  -0.48200   -106.880072470000   -166.564957672000     45.073224652800
      13    5  1   0.96400    186.841347949000   -131.567623116000   -155.102859893000
      14    5  2  -0.48200    186.676088716000   -131.876260400000   -154.678675484000
      15    5  2  -0.48200    187.006607182000   -131.258985832000   -155.527044302000
      16    6  1   0.96400    -27.688249649500     18.099328148700    -16.732083191100
      17    6  2  -0.48200    -27.175152580600     18.121189497000    -16.928942225300
      18    6  2  -0.48200    -28.201346718400     18.077466800500    -16.535224156900
      19    7  1   0.96400    200.189100270000   -109.607907258000   -166.667523365000
      20    7  2  -0.48200    200.675898673000   -109.820824548000   -166.525419382000
      21    7  2  -0.48200    199.702301866000   -109.394989968000   -166.809627347000
      22    8  1   0.96400    -97.852488008600     37.786175515100   -199.785602105000
      23    8  2  -0.48200    -98.229606313600     38.053830804300   -200.083330892000
      24    8  2  -0.48200    -97.475369703700     37.518520225900   -199.487873319000
      25    9  1   0.96400     12.571131764000    -49.032267657400    -49.285152520700
      26    9  2  -0.48200     12.696555364000    -49.548667142300    -49.426928726500
      27    9  2  -0.48200     12.445708163900    -48.515868172500    -49.143376314800
      28   10  1   0.96400   -101.089956979000     28.585561617100   -141.478525771000
      29   10  2  -0.48200   -101.612499782000     28.420685595800   -141.430934628000
      30   10  2  -0.48200   -100.567414176000     28.750437638300   -141.526116914000
      31   11  1   0.96400   -104.488224435000   -174.042875660000   -184.203363155000
      32   11  2  -0.48200   -104.619865301000   -174.500998756000   -184.477760515000
      33   11  2  -0.48200   -104.356583569000   -173.584752564000   -183.928965794000
      34   12  1   0.96400    -74.371068159900    193.308519627000    145.340995182000
      35   12  2  -0.48200    -74.368422620300    193.221152164000    144.797985120000
      36   12  2  -0.48200    -74.373713699600    193.395887090000    145.884005244000
      37   13  1   0.96400    -24.657887503300   -166.937525153000     82.626314656100
      38   13  2  -0.48200    -24.358850457900   -167.039323516000     82.176077009300
      39   13  2  -0.48200    -24.956924548800   -166.835726789000     83.076552302800
      40   14  1   0.96400     34.812595192700     72.603864718500    120.920820718000
      41   14  2  -0.48200     34.558174449700     73.016821842800    120.661520700000
      42   14  2  -0.48200     35.067015935600     72.190907594200    121.180120735000
      43   15  1   0.96400   -104.604322499000   -109.004696148000    -60.740384031400
      44   15  2  -0.48200   -104.468059275000   -108.471913750000    -60.749058713800
      45   15  2  -0.48200   -104.740585724000   -109.537478546000    -60.731709348900
      46   16  1   0.96400    123.817898199000   -132.754711543000   -115.327934411000
      47   16  2  -0.48200    123.939091122000   -132.469929695000   -115.782589857000
      48   16  2  -0.48200    123.696705276000   -133.039493391000   -114.873278965000
      49   17  1   0.96400   -186.593406523000    -98.571496907300    217.261809402000
      50   17  2  -0.48200   -186.988728167000    -98.648196165200    217.636426570000
      51   17  2  -0.48200   -186.198084880000    -98.494797649500    216.887192235000
      52   18  1   0.96400    209.504962009000   -170.564442720000    -96.922365335700
      53   18  2  -0.48200    209.445023738000   -171.106447649000    -96.850685064700
      54   18  2  -0.48200    209.564900279000   -170.022437792000    -96.994045606700
      55   19  1   0.96400    194.002664730000    -28.913557143800     45.595266645000
      56   19  2  -0.48200    194.193794766000    -29.384950737600     45.804449313900
      57   19  2  -0.48200    193.811534694000    -28.442163550000     45.386083976000
      58   20  1   0.96400   -178.388697546000   -108.297631835000    209.065486212000
      59   20  2  -0.48200   -178.382877424000   -107.969279341000    209.506678648000
      60   20  2  -0.48200   -178.394517668000   -108.625984329000    208.624293775000
      61   21  1   0.96400   -186.792987489000    106.962930889000    185.055919388000
      62   21  2  -0.48200   -186.886545585000    107.410218736000    184.749846742000
      63   21  2  -0.48200   -186.699429392000    106.515643042000    185.361992033000
      64   22  1   0.96400   -109.928583752000     15.419567934100     14.762987226200
      65   22  2  -0.48200   -109.969816914000     14.920541214000     14.535452264200
      66   22  2  -0.48200   -109.887350590000     15.918594654300     14.990522188100
      67   23  1   0.96400    116.156012523000     80.865848941600     44.904372048300
      68   23  2  -0.48200    116.243139652000     81.199222175100     45.333057423200
      69   23  2  -0.48200    116.068885394000     80.532475708100     44.475686673500
      70   24  1   0.96400     16.817216963400   -169.572682655000     40.407721946600
      71   24  2  -0.48200     16.402932711100   -169.381199979000     40.714646926300
      72   24  2  -0.48200     17.231501215600   -169.764165331000     40.100796966900
      73   25  1   0.96400    -72.492068231200    185.444264307000    158.176360991000
      74   25  2  -0.48200    -72.404987618000    185.987095790000    158.192202334000
      75   25  2  -0.48200    -72.579148844300    184.901432824000    158.160519649000
      76   26  1   0.96400     25.398605596600    -48.021867607100   -129.079097728000
      77   26  2  -0.48200     25.828312222400    -48.315880805000   -128.901873421000
      78   26  2  -0.48200     24.968898970800    -47.727854409200   -129.256322036000
      79   27  1   0.96400     93.332047131600   -150.038574264000   -179.796215178000
      80   27  2  -0.48200     93.876119512400   -150.044156577000   -179.715877874000
      81   27  2  -0.48200     92.787974750900   -150.032991952000   -179.876552481000
      82   28  1   0.96400    -53.289850837800    -95.985813614700    -79.020373429600
      83   28  2  -0.48200    -53.547426249300    -95.883169271100    -79.495367162300
      84   28  2  -0.48200    -53.032275426300    -96.088457958300    -78.545379696900
      85   29  1   0.96400   -131.668852153000   -184.078717339000    -27.826903282700
      86   29  2  -0.48200   -131.842624117000   -184.119390211000    -27.306663893500
      87   29  2  -0.48200   -131.495080190000   -184.038044466000    -28.347142672000
      88   30  1   0.96400     43.063713573600    130.590153005000    216.408020539000
      89   30  2  -0.48200     42.617922914900    130.645079046000    216.090603118000
      90   30  2  -0.48200     43.509504232300    130.535226964000    216.725437959000
      91   31  1   0.96400    217.934444712000   -147.191302885000     89.164343494900
      92   31  2  -0.48200    218.261143853798   -147.157157041000     88.723206632000
      93   31  2  -0.48200    217.607745570000   -147.225448729000     89.605480357700
      94   32  1   0.96400     89.031486204500    189.934986450000     66.604793487600
      95   32  2  -0.48200     89.241209838400    189.758316375000     67.081557246800
      96   32  2  -0.48200     88.821762570600    190.111656524000     66.128029728300
      97   33  1   0.96400    111.131121576000    176.602983518000    182.054783543000
      98   33  2  -0.48200    110.867790430000    176.649024651000    181.574120540000
      99   33  2  -0.48200    111.394452721000    176.556942385000    182.535446545000
     100   34  1   0.96400     68.532603712200    -16.564413797300     23.912979062400
     101   34  2  -0.48200     68.585173274600    -17.069510416400     23.701759161500
     102   34  2  -0.48200     68.480034149800    -16.059317178300     24.124198963300
     103   35  1   0.96400    106.531522515000    120.923955705000   -160.370375361000
     104   35  2  -0.48200    106.735664128000    120.532728348000   -160.042095973000
     105   35  2  -0.48200    106.327380902000    121.315183063000   -160.698654748000
     106   36  1   0.96400    127.526149815000   -141.595591921000   -103.357784522000
     107   36  2  -0.48200    127.546360785000   -141.133330866000   -103.655116382000
     108   36  2  -0.48200    127.505938844000   -142.057852975000   -103.060452663000
     109   37  1   0.96400    -29.429858991400    -41.634130676200     49.969794264500
     110   37  2  -0.48200    -29.573683844400    -41.268576919700     50.354742134700
     111   37  2  -0.48200    -29.286034138300    -41.999684432700     49.584846394300
     112   38  1   0.96400    -92.480146812900   -194.489124510000    -92.680535690000
     113   38  2  -0.48200    -92.334141905800   -194.909930728000    -93.003188280800
     114   38  2  -0.48200    -92.626151720000   -194.068318292000    -92.357883099200
     115   39  1   0.96400    -91.561362564500   -136.187161634000    210.815548003000
     116   39  2  -0.48200    -91.783764905600   -136.657737777000    210.637797357000
     117   39  2  -0.48200    -91.338960223500   -135.716585491000    210.993298649000
     118   40  1   0.96400    -92.251522066200    -94.604720472800   -184.221012307000
     119   40  2  -0.48200    -92.163535929400    -95.111450993100   -184.415903608000
     120   40  2  -0.48200    -92.339508202900    -94.097989952400   -184.026121005000
     121   41  1   0.96400    -75.688324611400    191.885446393000    -69.374812062600
     122   41  2  -0.48200    -76.162418676200    192.162560864000    -69.405510399400
     123   41  2  -0.48200    -75.214230546600    191.608331922000    -69.344113725800
     124   42  1   0.96400   -141.905005339000    -36.072523370400    202.983757214000
     125   42  2  -0.48200   -142.016906125000    -35.701349801600    203.373896159000
     126   42  2  -0.48200   -141.793104553000    -36.443696939200    202.593618270000
     127   43  1   0.96400    100.147226138000    118.225549976000   -213.748779085000
     128   43  2  -0.48200    100.526592168000    117.827815468000   -213.729064221000
     129   43  2  -0.48200     99.767860107600    118.623284485000   -213.768493949000
     130   44  1   0.96400    163.153951713000   -210.910234825000    -21.646637846200
     131   44  2  -0.48200    162.674207713000   -210.950344693000    -21.912601927200
     132   44  2  -0.48200    163.633695714000   -210.870124958000    -21.380673765200
     133   45  1   0.96400    203.708582332000     24.321100356700    -47.299183500900
     134   45  2  -0.48200    203.719389976000     24.685237207100    -46.887130653500
     135   45  2  -0.48200    203.697774688000     23.956963506300    -47.711236348200
     136   46  1   0.96400   -213.036877194000    -56.960579982400   -152.265693645000
     137   46  2  -0.48200   -212.954667953000    -56.425150788600   -152.170524222000
     138   46  2  -0.48200   -213.119086435000    -57.496009176200   -152.360863068000
     139   47  1   0.96400     89.722557262900    118.349520026000   -202.837589609000
     140   47  2  -0.48200     89.827694512300    117.880381739000   -203.104713974000
     141   47  2  -0.48200     89.617420013600    118.818658313000   -202.570465244000
     142   48  1   0.96400   -114.732950705000   -114.460778912000     15.056398736800
     143   48  2  -0.48200   -115.067291268000   -114.044927799000     14.923041173000
     144   48  2  -0.48200   -114.398610143000   -114.876630026000     15.189756300600
     145   49  1   0.96400    -31.069001032100    207.809337514000     -5.839503851620
     146   49  2  -0.48200    -31.308826650800    207.327855802000     -5.954216680960
     147   49  2  -0.48200    -30.829175413300    208.290819227000     -5.724791022270
     148   50  1   0.96400    -70.565234369700   -133.849914495000   -107.444737078000
     149   50  2  -0.48200    -70.228655241100   -133.900032534000   -107.876828124000
     150   50  2  -0.48200    -70.901813498400   -133.799796456000   -107.012646031000
     151   51  1   0.96400     17.485580265700   -162.470531884000      7.887841419550
     152   51  2  -0.48200     17.488228499100   -162.069096798000      7.511885493300
     153   51  2  -0.48200     17.482932032400   -162.871966970000      8.263797345810
     154   52  1   0.96400    -77.266988545700   -158.870817455000     87.619719097700
     155   52  2  -0.48200    -77.471304599400   -158.429610364000     87.362636906100
     156   52  2  -0.48200    -77.062672492100   -159.312024546000     87.876801289300
     157   53  1   0.96400     34.559841068400     53.359957321300     -9.939278811300
     158   53  2  -0.48200     34.255790450300     53.589104281500     -9.542359559820
     159   53  2  -0.48200     34.863891686600     53.130810361000    -10.336198062800
     160   54  1   0.96400     -5.633418192410   -163.180074727000     99.320919556900
     161   54  2  -0.48200     -5.369064218880   -162.766848632000     99.569638616600
     162   54  2  -0.48200     -5.897772165950   -163.593300823000     99.072200497300
     163   55  1   0.96400    -73.759242562500   -123.430986767000   -118.008283021000
     164   55  2  -0.48200    -74.011557667600   -123.624975680000   -118.456842258000
     165   55  2  -0.48200    -73.506927457400   -123.236997853000   -117.559723783000
     166   56  1   0.96400   -215.736286535000    -67.356794036500   -141.531394904000
     167   56  2  -0.48200   -215.980636864000    -67.013042062800   -141.884421103000
     168   56  2  -0.48200   -215.491936205000    -67.700546010300   -141.178368705000
     169   57  1   0.96400    194.197096300000     57.943892848500   -133.403501797000
     170   57  2  -0.48200    194.462521907000     58.337096767800   -133.681782096000
     171   57  2  -0.48200    193.931670692000     57.550688929100   -133.125221498000
     172   58  1   0.96400      3.310399723150   -171.789534043000     46.983247751200
     173   58  2  -0.48200      3.819060359020   -171.710039122000     47.176754637300
     174   58  2  -0.48200      2.801739087280   -171.869028965000     46.789740865100
     175   59  1   0.96400    -39.202227318000     28.053304051700    -16.647090720400
     176   59  2  -0.48200    -38.992907871600     27.752296481900    -16.237115340400
     177   59  2  -0.48200    -39.411546764400     28.354311621600    -17.057066100500
     178   60  1   0.96400    -39.956242153200    -95.741657448900    194.263122455000
     179   60  2  -0.48200    -39.701688592800    -95.622350537500    193.790398068000
     180   60  2  -0.48200    -40.210795713500    -95.860964360300    194.735846842000
     181   61  1   0.96400    173.120398916000    -56.577676678700    210.397215195000
     182   61  2  -0.48200    173.629434233000    -56.389598761000    210.307718029000
     183   61  2  -0.48200    172.611363599000    -56.765754596400    210.486712360000
     184   62  1   0.96400   -197.578899486000    -23.332528344000    178.347095841000
     185   62  2  -0.48200   -197.699658414000    -23.039031807600    177.897899821000
     186   62  2  -0.48200   -197.458140559000    -23.626024880300    178.796291861000
     187   63  1   0.96400    -58.440526772800     43.420823178000    124.496249185000
     188   63  2  -0.48200    -58.137920045300     43.629241261900    124.086992456000
     189   63  2  -0.48200    -58.743133500300     43.212405094100    124.905505915000
     190   64  1   0.96400    188.240072761000     55.017127344200   -119.698582095000
     191   64  2  -0.48200    188.485659980000     55.008337642300   -119.206535696000
     192   64  2  -0.48200    187.994485542000     55.025917046100   -120.190628494000
     193   65  1   0.96400    106.220777457000     82.791022250400    126.175043501000
     194   65  2  -0.48200    106.241438555000     82.510067040200    126.647417599000
     195   65  2  -0.48200    106.200116360000     83.071977460700    125.702669402000
     196   66  1   0.96400    -86.019271342500    -90.129335071600    -61.853496764200
     197   66  2  -0.48200    -86.121209685900    -89.626806563300    -62.052428090400
     198   66  2  -0.48200    -85.917332999100    -90.631863579900    -61.654565438100
     199   67  1   0.96400     56.467727447000    121.107640887000    172.797772286000
     200   67  2  -0.48200     56.771984264600    120.663640401000    172.684673404000
     201   67  2  -0.48200     56.163470629400    121.551641373000    172.910871168000
     202   68  1   0.96400    194.867149266000   -139.862094190000   -145.148267246000
     203   68  2  -0.48200    194.867756564000   -139.458363657000   -145.521765959000
     204   68  2  -0.48200    194.866541968000   -140.265824723000   -144.774768534000
     205   69  1   0.96400     -0.296925101085    -41.017102326200    -48.937555597400
     206   69  2  -0.48200     -0.578234482958    -40.544499110300    -48.934204180000
     207   69  2  -0.48200     -0.015615719212    -41.489705542100    -48.940907014700
     208   70  1   0.96400    -63.318720401200     50.946583901000    136.709416857000
     209   70  2  -0.48200    -63.651176450000     51.040542323600    136.281462665000
     210   70  2  -0.48200    -62.986264352400     50.852625478400    137.137371049000
     211   71  1   0.96400    202.490569337000    -33.804117361800    197.185869627000
     212   71  2  -0.48200    202.545209657000    -33.327238282100    197.454385509000
     213   71  2  -0.48200    202.435929017000    -34.280996441600    196.917353745000
     214   72  1   0.96400     82.685043752500    -90.197272029100     71.255268533600
     215   72  2  -0.48200     82.682720264800    -89.806540365400     70.868198296500
     216   72  2  -0.48200     82.687367240200    -90.588003692800     71.642338770600
     217   73  1   0.96400    -53.460644582100   -160.741537922000    155.626522882000
     218   73  2  -0.48200    -52.964957489600   -160.965721033000    155.707369891000
     219   73  2  -0.48200    -53.956331674600   -160.517354810000    155.545675874000
     220   74  1   0.96400    192.258977723000     -0.820676449119    141.735920117000
     221   74  2  -0.48200    192.243638924000     -0.292086461871    141.584733654000
     222   74  2  -0.48200    192.274316523000     -1.349266436370    141.887106580000
     223   75  1   0.96400   -215.185756782000   -136.810536348000     78.397628229200
     224   75  2  -0.48200   -215.001237728000   -137.180234813000     78.760637545200
     225   75  2  -0.48200   -215.370275836000   -136.440837883000     78.034618913200
     226   76  1   0.96400    -62.647126733500    195.307316802000    -62.725419255100
     227   76  2  -0.48200    -62.785330189400    194.834185643000    -62.969441204000
     228   76  2  -0.48200    -62.508923277500    195.780447961000    -62.481397306300
     229   77  1   0.96400    196.289910869000    -44.072551836300     44.867709038100
     230   77  2  -0.48200    196.511568823000    -44.459693607600     44.546011975000
     231   77  2  -0.48200    196.068252916000    -43.685410065000     45.189406101100
     232   78  1   0.96400   -183.728345777000    132.638281609000     18.621958340100
     233   78  2  -0.48200   -184.173769645000    132.353222022000     18.773082825700
     234   78  2  -0.48200   -183.282921910000    132.923341196000     18.470833854500
     235   79  1   0.96400   -169.090735803000   -194.606720044000    212.909829701000
     236   79  2  -0.48200   -169.324349054000   -194.406802425000    212.453805805000
     237   79  2  -0.48200   -168.857122551000   -194.806637663000    213.365853598000
     238   80  1   0.96400     99.719705629900    -12.954110556700     19.945513603600
     239   80  2  -0.48200     99.453421102100    -12.587838024300     19.633364629100
     240   80  2  -0.48200     99.985990157700    -13.320383089100     20.257662578100
     241   81  1   0.96400   -118.380954253000   -173.972193680000   -211.566397985000
     242   81  2  -0.48200   -118.923240499000   -174.028298882000   -211.639046688000
     243   81  2  -0.48200   -117.838668007000   -173.916088477000   -211.493749281000
     244   82  1   0.96400    114.197237055000    114.536969861000   -209.264312290000
     245   82  2  -0.48200    114.370328615000    114.454570968000   -208.748803091000
     246   82  2  -0.48200    114.024145496000    114.619368754000   -209.779821489000
     247   83  1   0.96400    -38.430304571400    -43.779708403100    191.222512322000
     248   83  2  -0.48200    -38.694086751300    -43.525893977100    190.812028219000
     249   83  2  -0.48200    -38.166522391400    -44.033522829100    191.632996425000
     250   84  1   0.96400     90.411373830900   -206.680636558000   -199.174674265000
     251   84  2  -0.48200     90.007607097500   -207.038675276000   -199.280884909000
     252   84  2  -0.48200     90.815140564300   -206.322597839000   -199.068463620000
     253   85  1   0.96400    205.354690913000    -34.421376167400    182.847741851000
     254   85  2  -0.48200    205.393209043000    -34.843456919300    183.198261740000
     255   85  2  -0.48200    205.316172782000    -33.999295415500    182.497221962000
     256   86  1   0.96400   -181.048172510000    135.896353863000     32.471318136600
     257   86  2  -0.48200   -180.970582156000    135.812122736000     31.933373107700
     258   86  2  -0.48200   -181.125762864000    135.980584990000     33.009263165500
     259   87  1   0.96400     -1.658413712440     67.233057402200    -71.613140761200
     260   87  2  -0.48200     -1.823003632380     66.880911826300    -71.224034539700
     261   87  2  -0.48200     -1.493823792510     67.585202978200    -72.002246982700
     262   88  1   0.96400   -104.146572042000   -122.139897916000      7.694579273380
     263   88  2  -0.48200   -103.605301176000   -122.215402100000      7.756425596520
     264   88  2  -0.48200   -104.687842908000   -122.064393732000      7.632732950250
     265   89  1   0.96400      8.007407218300   -102.001285001000    -74.782387882600
     266   89  2  -0.48200      7.476274174230   -102.014157358000    -74.640148675900
     267   89  2  -0.48200      8.538540262370   -101.988412645000    -74.924627089300
     268   90  1   0.96400    -82.052816331000    180.105962408000    -62.885521416200
     269   90  2  -0.48200    -81.523832608600    179.965807366000    -62.830450682500
     270   90  2  -0.48200    -82.581800053400    180.246117450000    -62.940592149800
     271   91  1   0.96400   -196.641649891000    205.830533726000   -217.321173756000
     272   91  2  -0.48200   -196.862036883000    205.526435667000   -216.919360436000
     273   91  2  -0.48200   -196.421262898000    206.134631784000   -217.722987076000
     274   92  1   0.96400   -147.534545926000    -32.776884275600    216.630735900000
     275   92  2  -0.48200   -147.930326975000    -32.772308864000    217.012621258000
     276   92  2  -0.48200   -147.138764877000    -32.781459687300    216.248850542000
     277   93  1   0.96400   -129.496731666000     53.128470582900   -178.960429180000
     278   93  2  -0.48200   -128.965763248000     53.216655329400   -179.073548541000
     279   93  2  -0.48200   -130.027700083000     53.040285836400   -178.847309818000
     280   94  1   0.96400   -177.090200510000    -79.443637336800     62.539667045200
     281   94  2  -0.48200   -177.109356044000    -79.453535008100     63.089244247800
     282   94  2  -0.48200   -177.071044976000    -79.433739665600     61.990089842600
     283   95  1   0.96400    102.632374082000    -15.677259609900      5.335095752170
     284   95  2  -0.48200    102.099011061000    -15.578315011600      5.425836343150
     285   95  2  -0.48200    103.165737102000    -15.776204208200      5.244355161180
     286   96  1   0.96400   -145.926526619000     61.571740963600    120.368397338000
     287   96  2  -0.48200   -146.095804773000     61.471247120200    120.881959305000
     288   96  2  -0.48200   -145.757248464000     61.672234807100    119.854835372000
     289   97  1   0.96400     44.040912575900    -18.434985808700     78.945268931000
     290   97  2  -0.48200     43.946296544100    -18.890192659500     79.239096311400
     291   97  2  -0.48200     44.135528607700    -17.979778957800     78.651441550600
     292   98  1   0.96400   -208.975201100000   -102.639617344000    167.092273741000
     293   98  2  -0.48200   -208.954194208000   -102.092354514000    167.142890981000
     294   98  2  -0.48200   -208.996207993000   -103.186880174000    167.041656501000
     295   99  1   0.96400     26.465474639700     83.459286232000    127.460081520000
     296   99  2  -0.48200     26.585488165900     83.467468358400    126.923397435000
     297   99  2  -0.48200     26.345461113600     83.451104105500    127.996765604000
     298  100  1   0.96400    103.928084752000     28.706349062100     39.811540597500
     299  100  2  -0.48200    104.128524425000     28.828584258400     40.308916204000
     300  100  2  -0.48200    103.727645078000     28.584113865900     39.314164990900
     301  101  1   0.96400   -108.294196691000   -168.056379760000     31.282944478400
     302  101  2  -0.48200   -108.436402996000   -168.030312617000     30.752286518100
     303  101  2  -0.48200   -108.151990385000   -168.082446903000     31.813602438700
     304  102  1   0.96400    133.305951951000    178.949827214000   -179.561563710000
     305  102  2  -0.48200    133.526010679000    178.786798617000   -179.084598478000
     306  102  2  -0.48200    133.085893222000    179.112855812000   -180.038528942000
     307  103  1   0.96400    101.464178707000    118.353828967000   -108.931588195000
     308  103  2  -0.48200    101.003035086000    118.409225398000   -109.226168908000
     309  103  2  -0.48200    101.925322328000    118.298432536000   -108.637007483000
     310  104  1   0.96400    -42.753550314000   -175.617963292000    100.744906207000
     311  104  2  -0.48200    -43.031664578400   -175.147848115000    100.680530933000
     312  104  2  -0.48200    -42.475436049600   -176.088078470000    100.809281480000
     313  105  1   0.96400    -90.615950619700    -80.740910293700    166.360782467000
     314  105  2  -0.48200    -91.062470146400    -81.057883807200    166.412242198000
     315  105  2  -0.48200    -90.169431092900    -80.423936780100    166.309322736000
     316  106  1   0.96400     71.965584484700     79.918195259500   -135.471678381000
     317  106  2  -0.48200     72.161300110300     80.232228631400   -135.064765079000
     318  106  2  -0.48200     71.769868859100     79.604161887600   -135.878591683000
     319  107  1   0.96400   -182.926596216000    179.991246931000   -198.616291749000
     320  107  2  -0.48200   -183.453806079000    180.142161691000   -198.658416511000
     321  107  2  -0.48200   -182.399386353000    179.840332170000   -198.574166986000
     322  108  1   0.96400   -157.612179699000   -104.723781471000    -84.750744856200
     323  108  2  -0.48200   -157.648763494000   -104.250083835000    -84.473666932400
     324  108  2  -0.48200   -157.575595904000   -105.197479107000    -85.027822780100
     325  109  1   0.96400    215.615712021000     58.063830959100     81.992458972000
     326  109  2  -0.48200    215.733896755000     58.172006430500     82.518605753800
     327  109  2  -0.48200    215.497527287000     57.955655487700     81.466312190200
     328  110  1   0.96400   -170.685107582000     -3.497547964140    -71.481986119500
     329  110  2  -0.48200   -170.545642830000     -3.006149891920    -71.685891778500
     330  110  2  -0.48200   -170.824572333000     -3.988946036370    -71.278080460600
     331  111  1   0.96400     41.550503940300    123.982374323000    173.104706235000
     332  111  2  -0.48200     41.374914437900    124.381573916000    172.769582360000
     333  111  2  -0.48200     41.726093442700    123.583174730000    173.439830110000
     334  112  1   0.96400    183.131868142000    176.718876717000    173.477439607000
     335  112  2  -0.48200    182.958109808000    176.231132944000    173.291929358000
     336  112  2  -0.48200    183.305626477000    177.206620490000    173.662949857000
     337  113  1   0.96400   -202.092943271000    177.499597799000    207.571334728000
     338  113  2  -0.48200   -202.443967463000    177.777705470000    207.252057200000
     339  113  2  -0.48200   -201.741919080000    177.221490128000    207.890612256000
     340  114  1   0.96400    125.100146242000   -130.979759678000    203.460512689000