LAMMPS Atom File

         3000 atoms
         2000 bonds
         1000 angles
           0 dihedrals
           0 impropers

           2 atom types
           1 bond types
           1 angle types

         0.0  80.3587230689 xlo xhi
         0.0  80.3587230689 ylo yhi
         0.0  80.3587230689 zlo zhi

Masses

         1    1.0e-20
         2   14.00670

Atoms

       1    1  1   0.96400    -20.617828302000     31.533865762700      5.624771273920
       2    1  2  -0.48200    -20.419920026700     31.989763153400      5.860334182120
       3    1  2  -0.48200    -20.815736577300     31.077968372000      5.389208365720
       4    2  1   0.96400     20.306425272800      0.760537915263      3.547266292220
       5    2  2  -0.48200     19.930284580700      0.549526534181      3.205956496280
       6    2  2  -0.48200     20.682565964900      0.971549296345      3.888576088160
       7    3  1   0.96400    -26.597405687600     38.006593773800     36.374347071600
       8    3  2  -0.48200    -26.213159203000     37.971830813900     36.766324335800
       9    3  2  -0.48200    -26.981652172200     38.041356733800     35.982369807400
      10    4  1   0.96400     18.908934360900    -30.915041843500     -8.760018857740
      11    4  2  -0.48200     18.757759720600    -30.986760107900     -9.283948928150
      12    4  2  -0.48200     19.060109001200    -30.843323579000     -8.236088787330
      13    5  1   0.96400    -14.361445442300     36.873489408500      7.072201828090
      14    5  2  -0.48200    -14.278010060200     37.181678067000      6.624364482870
      15    5  2  -0.48200    -14.444880824300     36.565300750000      7.520039173300
      16    6  1   0.96400    -11.940696464300     36.405518705600    -39.579186469900
      17    6  2  -0.48200    -11.525613830400     36.044946992500    -39.593130886300
      18    6  2  -0.48200    -12.355779098100     36.766090418700    -39.565242053400
      19    7  1   0.96400     33.748412565300     10.043477531500     -2.806908452550
      20    7  2  -0.48200     34.054551352200      9.884680318990     -3.235350383810
      21    7  2  -0.48200     33.442273778400     10.202274744100     -2.378466521280
      22    8  1   0.96400     32.817387422500    -11.165268150200     14.741859110600
      23    8  2  -0.48200     33.274691815600    -11.305555595900     15.013322044800
      24    8  2  -0.48200     32.360083029300    -11.024980704500     14.470396176500
      25    9  1   0.96400     13.051638869400     24.628702305100    -33.594116723700
      26    9  2  -0.48200     13.288106216900     24.839764303400    -33.144632545500
      27    9  2  -0.48200     12.815171521900     24.417640306900    -34.043600901900
      28   10  1   0.96400     23.433740267800     -9.415251691320     35.447748424800
      29   10  2  -0.48200     23.648149784700     -9.064613452620     35.813236296800
      30   10  2  -0.48200     23.219330750900     -9.765889930030     35.082260552800
      31   11  1   0.96400     -2.177879012890    -11.973911439700    -26.107788535200
      32   11  2  -0.48200     -2.194733634440    -11.461077467300    -26.305821962900
      33   11  2  -0.48200     -2.161024391350    -12.486745412100    -25.909755107500
      34   12  1   0.96400    -19.806818457100    -10.540579148200     13.082193697400
      35   12  2  -0.48200    -19.307122115700    -10.319553610900     13.019334503000
      36   12  2  -0.48200    -20.306514798400    -10.761604685500     13.145052891800
      37   13  1   0.96400    -23.469447614100    -28.249171376000     30.944253711400
      38   13  2  -0.48200    -23.157118605600    -28.247956003900     30.491540652900
      39   13  2  -0.48200    -23.781776622700    -28.250386748100     31.396966769800
      40   14  1   0.96400    -25.675703884200    -16.034865933800     25.809612062600
      41   14  2  -0.48200    -25.825147111900    -16.351684240600     26.233631970300
      42   14  2  -0.48200    -25.526260656500    -15.718047626900     25.385592154800
      43   15  1   0.96400     28.608603375800     30.705483586900    -38.663422689800
      44   15  2  -0.48200     28.913385820600     31.102457809900    -38.435345668600
      45   15  2  -0.48200     28.303820931100     30.308509363800    -38.891499711100
      46   16  1   0.96400     16.141169189900     29.769106136200     32.722743782300
      47   16  2  -0.48200     16.618666845700     29.886998546800     32.476578455300
      48   16  2  -0.48200     15.663671534100     29.651213725600     32.968909109300
      49   17  1   0.96400    -33.560028107700     39.055437244300      9.663315761090
      50   17  2  -0.48200    -34.091018704900     39.103792758200      9.798262898730
      51   17  2  -0.48200    -33.029037510500     39.007081730400      9.528368623450
      52   18  1   0.96400    -19.433413396700    -10.064911408100     19.630991511800
      53   18  2  -0.48200    -19.980565108200    -10.013709750000     19.653427973400
      54   18  2  -0.48200    -18.886261685200    -10.116113066100     19.608555050200
      55   19  1   0.96400     -3.784217871460     -3.138113602960     24.264487972700
      56   19  2  -0.48200     -3.877825189800     -3.634454701540     24.046811185300
      57   19  2  -0.48200     -3.690610553110     -2.641772504380     24.482164760200
      58   20  1   0.96400    -26.764701584200     -7.947658055780    -32.846498223800
      59   20  2  -0.48200    -26.564423744300     -7.447418992920    -32.956723750900
      60   20  2  -0.48200    -26.964979424100     -8.447897118640    -32.736272696600
      61   21  1   0.96400     34.886871066000    -32.654283570200     15.141095034800
      62   21  2  -0.48200     34.616629406000    -32.410317393100     15.553344897900
      63   21  2  -0.48200     35.157112725900    -32.898249747300     14.728845171600
      64   22  1   0.96400      7.623698108000    -14.309981173200     30.593327096400
      65   22  2  -0.48200      7.145120833850    -14.265408863000     30.325975077900
      66   22  2  -0.48200      8.102275382140    -14.354553483300     30.860679115000
      67   23  1   0.96400    -15.712028103600    -21.177557601200      3.850214609880
      68   23  2  -0.48200    -15.987477569600    -20.798735228400      4.138522087400
      69   23  2  -0.48200    -15.436578637600    -21.556379974000      3.561907132350
      70   24  1   0.96400     -4.471425435060     -5.100184242210     34.359073549600
      71   24  2  -0.48200     -4.723650003720     -4.614647440290     34.303066577400
      72   24  2  -0.48200     -4.219200866400     -5.585721044140     34.415080521900
      73   25  1   0.96400    -29.238033265800      4.871426662000    -28.125802607100
      74   25  2  -0.48200    -29.379308971800      4.689966970340    -28.625416012900
      75   25  2  -0.48200    -29.096757559900      5.052886353660    -27.626189201400
      76   26  1   0.96400    -38.386814727900     36.452975417300     -0.232500232206
      77   26  2  -0.48200    -38.244726102000     36.848803698700     -0.586944577636
      78   26  2  -0.48200    -38.528903353800     36.057147135800      0.121944113224
      79   27  1   0.96400    -15.318881138700     38.976565136300     -6.386426126830
      80   27  2  -0.48200    -15.328492359800     38.521615977200     -6.695341790250
      81   27  2  -0.48200    -15.309269917700     39.431514295300     -6.077510463410
      82   28  1   0.96400    -10.986250953400    -22.029951006800     23.768876748400
      83   28  2  -0.48200    -10.464470942700    -22.170619755800     23.666612759400
      84   28  2  -0.48200    -11.508030964100    -21.889282257800     23.871140737400
      85   29  1   0.96400     21.321336573000     -7.532503032290     17.596625407600
      86   29  2  -0.48200     21.619389528100     -7.228950816970     17.248027518100
      87   29  2  -0.48200     21.023283617900     -7.836055247610     17.945223297100
      88   30  1   0.96400     34.801231696400    -28.408573655900    -19.848314148400
      89   30  2  -0.48200     34.901320147200    -28.234618656900    -20.360390275900
      90   30  2  -0.48200     34.701143245500    -28.582528654800    -19.336238020900
      91   31  1   0.96400    -26.788557310300      3.194511795070     14.764312070900
      92   31  2  -0.48200    -26.354795675400      3.153377380500     14.428665226700
      93   31  2  -0.48200    -27.222318945200      3.235646209630     15.099958915200
      94   32  1   0.96400     34.348331634700    -14.628290304000    -30.254751720300
      95   32  2  -0.48200     34.860779554000    -14.522113364000    -30.423936788900
      96   32  2  -0.48200     33.835883715400    -14.734467244100    -30.085566651800
      97   33  1   0.96400     39.337724167400     14.484846669500    -31.320873204000
      98   33  2  -0.48200     39.197435212200     14.995228759900    -31.470302554800
      99   33  2  -0.48200     39.478013122600     13.974464579100    -31.171443853200
     100   34  1   0.96400     21.949680351300     35.616584251900     15.047782136600
     101   34  2  -0.48200     22.209921707200     36.020987833200     14.780888562100
     102   34  2  -0.48200     21.689438995400     35.212180670600     15.314675711100
     103   35  1   0.96400    -23.904871964000     -8.539667955130     16.592270790400
     104   35  2  -0.48200    -24.402856035900     -8.329807973960     16.489944584600
     105   35  2  -0.48200    -23.406887892100     -8.749527936290     16.694596996200
     106   36  1   0.96400     20.411403998200     32.761506753100     37.379686774600
     107   36  2  -0.48200     20.605808441500     32.554645057600     37.850765484900
     108   36  2  -0.48200     20.216999554900     32.968368448600     36.908608064200
     109   37  1   0.96400     14.026410143600    -16.199333915400     18.694974678000
     110   37  2  -0.48200     14.562011362000    -16.321553877400     18.721311263600
     111   37  2  -0.48200     13.490808925200    -16.077113953500     18.668638092400
     112   38  1   0.96400     28.438847011100    -36.986847152800    -33.836154833100
     113   38  2  -0.48200     28.179449021500    -36.741595581400    -33.417747914300
     114   38  2  -0.48200     28.698245000700    -37.232098724100    -34.254561752000
     115   39  1   0.96400    -13.595304713400    -35.984645614400      9.743765979110
     116   39  2  -0.48200    -14.113555933600    -36.101257442900      9.601227022570
     117   39  2  -0.48200    -13.077053493100    -35.868033785900      9.886304935650
     118   40  1   0.96400    -13.140741563900    -12.752727690700     35.549882795700
     119   40  2  -0.48200    -12.726134783600    -12.796333473700     35.191135317000
     120   40  2  -0.48200    -13.555348344200    -12.709121907600     35.908630274300
     121   41  1   0.96400     33.164773134600    -25.163243219100    -29.739634739900
     122   41  2  -0.48200     33.571166664800    -25.400170811900    -30.024607746400
     123   41  2  -0.48200     32.758379604400    -24.926315626400    -29.454661733500
     124   42  1   0.96400      3.679885479710     31.224035129500     36.010389982500
     125   42  2  -0.48200      3.718316509940     31.687670003300     36.303759646500
     126   42  2  -0.48200      3.641454449480     30.760400255700     35.717020318600
     127   43  1   0.96400      6.310547918460     11.198006870300    -11.650733940600
     128   43  2  -0.48200      6.000072051400     11.438088053100    -12.036046491200
     129   43  2  -0.48200      6.621023785520     10.957925687500    -11.265421390000
     130   44  1   0.96400     38.397464647600     -7.208684874850    -38.203174686700
     131   44  2  -0.48200     38.111254145900     -7.583593717140    -38.486064963500
     132   44  2  -0.48200     38.683675149300     -6.833776032570    -37.920284410000
     133   45  1   0.96400    -24.005392824500     29.125683087800     -5.459076049460
     134   45  2  -0.48200    -24.200580641600     28.666357308600     -5.227945037790
     135   45  2  -0.48200    -23.810205007400     29.585008867100     -5.690207061130
     136   46  1   0.96400     30.016801561900     21.915677358000      9.570265300690
     137   46  2  -0.48200     29.766414837000     21.492552751000      9.816785188180
     138   46  2  -0.48200     30.267188286800     22.338801965100      9.323745413200
     139   47  1   0.96400    -23.892389556500    -16.474282080800    -37.441881928400
     140   47  2  -0.48200    -24.140227178800    -16.848452033200    -37.759802295400
     141   47  2  -0.48200    -23.644551934300    -16.100112128300    -37.123961561500
     142   48  1   0.96400     -7.002679828640     34.909346434500    -10.995789280200
     143   48  2  -0.48200     -6.649371233060     35.055867224600    -10.600561884400
     144   48  2  -0.48200     -7.355988424210     34.762825644400    -11.391016675900
     145   49  1   0.96400     22.879117490700     23.163713732700      3.717133340960
     146   49  2  -0.48200     23.266175343000     22.790735683300      3.833639107380
     147   49  2  -0.48200     22.492059638400     23.536691782100      3.600627574540
     148   50  1   0.96400    -11.134052117000     -8.960874272900    -18.640064314100
     149   50  2  -0.48200    -11.456235157100     -8.515136742730    -18.636046497900
     150   50  2  -0.48200    -10.811869076800     -9.406611803060    -18.644082130300
     151   51  1   0.96400     -1.550776314500     -1.848042828690    -28.485428076900
     152   51  2  -0.48200     -1.777079709250     -1.889923008270    -28.984960682600
     153   51  2  -0.48200     -1.324472919750     -1.806162649120    -27.985895471300
     154   52  1   0.96400    -24.753150193200     37.850117221100    -17.871865650700
     155   52  2  -0.48200    -25.063182774300     37.807064055100    -18.324111406400
     156   52  2  -0.48200    -24.443117612100     37.893170387100    -17.419619895000
     157   53  1   0.96400     -0.817437873661     10.316496044100     22.764327846800
     158   53  2  -0.48200     -1.325127702460     10.116930297300     22.694152705800
     159   53  2  -0.48200     -0.309748044866     10.516061791000     22.834502987900
     160   54  1   0.96400     36.104028916300      4.518112582490     36.211708534000
     161   54  2  -0.48200     36.278062326700      4.031758711830     36.400579613200
     162   54  2  -0.48200     35.929995505900      5.004466453150     36.022837454800
     163   55  1   0.96400      0.327838660407    -19.336845159100    -12.470197031400
     164   55  2  -0.48200      0.510475408374    -19.583636244100    -12.013866034600
     165   55  2  -0.48200      0.145201912440    -19.090054074000    -12.926528028200
     166   56  1   0.96400     -6.421512708700      4.167115820490     -4.157658470880
     167   56  2  -0.48200     -6.768613016790      4.523087870190     -4.392829208750
     168   56  2  -0.48200     -6.074412400600      3.811143770790     -3.922487733000
     169   57  1   0.96400     -7.421677448610    -24.550793942100     -7.897132799490
     170   57  2  -0.48200     -7.202066985320    -24.047847238600     -7.933407555260
     171   57  2  -0.48200     -7.641287911910    -25.053740645500     -7.860858043730
     172   58  1   0.96400     39.060930235300    -19.422319846700    -31.211649246500
     173   58  2  -0.48200     39.171801720200    -19.479992143400    -30.676036121200
     174   58  2  -0.48200     38.950058750300    -19.364647550000    -31.747262371800
     175   59  1   0.96400    -14.108970803200     -3.142758175730    -13.166377154500
     176   59  2  -0.48200    -14.627948770000     -3.063543171380    -13.330349265100
     177   59  2  -0.48200    -13.589992836400     -3.221973180070    -13.002405044000
     178   60  1   0.96400    -19.733457192000      7.401143630520    -18.627365249000
     179   60  2  -0.48200    -19.982713446100      6.923343044600    -18.737264838900
     180   60  2  -0.48200    -19.484200937800      7.878944216440    -18.517465659100
     181   61  1   0.96400    -10.903819876300     21.397593769800     11.202350808100
     182   61  2  -0.48200    -10.971497933100     21.536765853000     11.730129939800
     183   61  2  -0.48200    -10.836141819400     21.258421686700     10.674571676400
     184   62  1   0.96400    -11.207149620400     16.739805057500     10.648933875100
     185   62  2  -0.48200    -11.480111778300     16.625905674500     11.112634846500
     186   62  2  -0.48200    -10.934187462500     16.853704440600     10.185232903600
     187   63  1   0.96400     39.260504351500    -24.047738854400      8.732616401160
     188   63  2  -0.48200     39.277932682000    -23.521209972400      8.574617699440
     189   63  2  -0.48200     39.243076021000    -24.574267736400      8.890615102880
     190   64  1   0.96400      8.507853720830     18.276052719700     -4.690124362460
     191   64  2  -0.48200      9.029583784080     18.104218732900     -4.662360680190
     192   64  2  -0.48200      7.986123657570     18.447886706600     -4.717888044740
     193   65  1   0.96400    -19.936981264100     27.540745495700     -2.083882741590
     194   65  2  -0.48200    -19.952288389600     28.082692198200     -2.176400110750
     195   65  2  -0.48200    -19.921674138600     26.998798793200     -1.991365372420
     196   66  1   0.96400    -19.467234063300      8.109905322460    -37.058862002500
     197   66  2  -0.48200    -18.967359409800      8.338886860160    -37.044977256100
     198   66  2  -0.48200    -19.967108716800      7.880923784760    -37.072746749000
     199   67  1   0.96400     34.068162963100    -39.411896983200     37.029455063600
     200   67  2  -0.48200     34.481832126000    -39.096531743800     37.208124001700
     201   67  2  -0.48200     33.654493800200    -39.727262222500     36.850786125400
     202   68  1   0.96400      6.963178188670      1.420907746730      5.370862038180
     203   68  2  -0.48200      6.715855766980      1.902461820200      5.273716302040
     204   68  2  -0.48200      7.210500610360      0.939353673254      5.468007774320
     205   69  1   0.96400     -4.592851279510     33.391628580600     23.507447602400
     206   69  2  -0.48200     -4.909055089020     32.999302025000     23.287004810300
     207   69  2  -0.48200     -4.276647470010     33.783955136300     23.727890394500
     208   70  1   0.96400      4.537497580930     -7.974367454430     -8.975313834450
     209   70  2  -0.48200      3.989718060280     -8.023739420210     -8.975389722730
     210   70  2  -0.48200      5.085277101570     -7.924995488640     -8.975237946160
     211   71  1   0.96400     23.647059897800     -6.175707561030     31.393500744100
     212   71  2  -0.48200     24.034465408300     -6.277043152040     31.770526033000
     213   71  2  -0.48200     23.259654387300     -6.074371970010     31.016475455200
     214   72  1   0.96400    -21.840143832000      0.610532217635    -14.163200157200
     215   72  2  -0.48200    -22.137152994000      0.194203540844    -14.365576021700
     216   72  2  -0.48200    -21.543134670000      1.026860894430    -13.960824292600
     217   73  1   0.96400     17.676619697700    -29.830228489600    -29.020181254800
     218   73  2  -0.48200     17.416299453200    -29.427833129800    -28.750345481100
     219   73  2  -0.48200     17.936939942100    -30.232623849400    -29.290017028400
     220   74  1   0.96400    -20.242755632700      6.815292844640    -26.036252591700
     221   74  2  -0.48200    -20.405053376200      6.657711861100    -26.537578509700
     222   74  2  -0.48200    -20.080457889200      6.972873828180    -25.534926673700
     223   75  1   0.96400     -4.607451519960    -30.416225052100    -14.658874442200
     224   75  2  -0.48200     -4.879211893140    -30.644817992400    -14.238884481400
     225   75  2  -0.48200     -4.335691146770    -30.187632111800    -15.078864403100
     226   76  1   0.96400     26.990459740500      4.551090715240    -16.414124460000
     227   76  2  -0.48200     26.813019602300      4.112713476840    -16.133339143100
     228   76  2  -0.48200     27.167899878600      4.989467953650    -16.694909777000
     229   77  1   0.96400    -15.763175843700    -29.083575506200    -23.021857962200
     230   77  2  -0.48200    -15.617446600000    -28.954840125700    -23.536338466500
     231   77  2  -0.48200    -15.908905087500    -29.212310886800    -22.507377457900
     232   78  1   0.96400    -12.657653979500    -37.201459012800      4.602555454060
     233   78  2  -0.48200    -12.828151683900    -37.596719528100      4.944899809790
     234   78  2  -0.48200    -12.487156275200    -36.806198497600      4.260211098330
     235   79  1   0.96400     36.780363058500     -0.642825876871    -38.704835519000
     236   79  2  -0.48200     36.576171843700     -0.483160729919    -38.219744817600
     237   79  2  -0.48200     36.984554273300     -0.802491023822    -39.189926220500
     238   80  1   0.96400    -22.400864799900     29.418957077100    -16.191168762600
     239   80  2  -0.48200    -22.370370791900     29.177203127100    -16.684245980800
     240   80  2  -0.48200    -22.431358807800     29.660711027200    -15.698091544400
     241   81  1   0.96400     -2.446907131170     30.576428804500     25.381161771000
     242   81  2  -0.48200     -2.005671515160     30.540820189700     25.054752277100
     243   81  2  -0.48200     -2.888142747170     30.612037419400     25.707571264900
     244   82  1   0.96400     34.846923441100     15.829614838100      2.234460606210
     245   82  2  -0.48200     35.310442393300     15.696389488000      1.970072279970
     246   82  2  -0.48200     34.383404488900     15.962840188300      2.498848932450
     247   83  1   0.96400     29.975158789500    -32.770291313100     38.599894736200
     248   83  2  -0.48200     30.416436106900    -32.851458916500     38.917992440200
     249   83  2  -0.48200     29.533881472100    -32.689123709700     38.281797032100
     250   84  1   0.96400    -17.417120894300    -34.424610428300    -34.187379507200
     251   84  2  -0.48200    -17.738935307400    -34.014303171600    -34.362260719800
     252   84  2  -0.48200    -17.095306481100    -34.834917685100    -34.012498294500
     253   85  1   0.96400    -29.589277844200    -29.198205215200     28.577332760700
     254   85  2  -0.48200    -29.416240572700    -29.411637359000     28.100882529600
     255   85  2  -0.48200    -29.762315115600    -28.984773071400     29.053782991800
     256   86  1   0.96400     39.017226138600    -11.966592052700     27.706460365800
     257   86  2  -0.48200     38.738774336800    -12.253345590300     27.328654856600
     258   86  2  -0.48200     39.295677940400    -11.679838515200     28.084265875000
     259   87  1   0.96400     24.209963919400    -21.775471554400     32.194653769400
     260   87  2  -0.48200     24.058479823200    -21.376438210000     31.847774887500
     261   87  2  -0.48200     24.361448015600    -22.174504898700     32.541532651300
     262   88  1   0.96400     16.036147073900    -11.934186529200    -30.859930057500
     263   88  2  -0.48200     16.301302805300    -12.275185472200    -31.200388805300
     264   88  2  -0.48200     15.770991342400    -11.593187586100    -30.519471309700
     265   89  1   0.96400      6.031882592600     19.127807879200    -19.260944468900
     266   89  2  -0.48200      6.337705072790     19.554616463100    -19.424673034900
     267   89  2  -0.48200      5.726060112410     18.700999295300    -19.097215903000
     268   90  1   0.96400     31.961794473900      5.631957570580     36.006169049800
     269   90  2  -0.48200     31.747178333700      5.244655816900     36.332416293400
     270   90  2  -0.48200     32.176410614200      6.019259324270     35.679921806300
     271   91  1   0.96400    -16.567854826500     39.926956475300     27.185237461100
     272   91  2  -0.48200    -16.606550709800     39.880837746600     27.731932706600
     273   91  2  -0.48200    -16.529158943200     39.973075203900     26.638542215600
     274   92  1   0.96400     -0.273163457411    -15.597897213600     28.211151214000
     275   92  2  -0.48200     -0.037813342766    -15.778890789400     27.748169951900
     276   92  2  -0.48200     -0.508513572056    -15.416903637800     28.674132476100
     277   93  1   0.96400    -14.941852762900     -5.299903467820     18.894309839400
     278   93  2  -0.48200    -14.618985828100     -5.310581067050     18.449177352100
     279   93  2  -0.48200    -15.264719697700     -5.289225868590     19.339442326700
     280   94  1   0.96400     -5.066754727910    -30.606428309600     10.267326874200
     281   94  2  -0.48200     -5.581676845720    -30.552528901900     10.452934165200
     282   94  2  -0.48200     -4.551832610110    -30.660327717200     10.081719583300
     283   95  1   0.96400    -35.440127935200    -22.471527574500     37.902579096700
     284   95  2  -0.48200    -35.318069688200    -22.968381979100     38.104414388300
     285   95  2  -0.48200    -35.562186182300    -21.974673169900     37.700743805000
     286   96  1   0.96400      7.843626823860     13.485328056500     22.030817769900
     287   96  2  -0.48200      8.306287356390     13.302618068200     21.796164212900
     288   96  2  -0.48200      7.380966291340     13.668038044800     22.265471326900
     289   97  1   0.96400     25.867054293800     11.196390248200      6.538003339760
     290   97  2  -0.48200     25.452650535600     11.548377002800      6.455088625750
     291   97  2  -0.48200     26.281458052000     10.844403493600      6.620918053760
     292   98  1   0.96400    -21.621667545300    -19.176203090900     -8.000942254260
     293   98  2  -0.48200    -21.855292918800    -18.937407286600     -7.564026073830
     294   98  2  -0.48200    -21.388042171800    -19.414998895100     -8.437858434690
     295   99  1   0.96400     37.916524318500    -17.527358855900     27.768369837300
     296   99  2  -0.48200     37.822848683400    -17.532470048700     27.226430033400
     297   99  2  -0.48200     38.010199953500    -17.522247663100     28.310309641300
     298  100  1   0.96400    -19.673157308300    -17.494981499100     32.066038201900
     299  100  2  -0.48200    -20.059596838900    -17.271517065700     31.744746844700
     300  100  2  -0.48200    -19.286717777700    -17.718445932500     32.387329559000
     301  101  1   0.96400     19.637234303200    -20.314317799600    -19.785205678100
     302  101  2  -0.48200     19.507604314100    -20.848215724200    -19.759728787100
     303  101  2  -0.48200     19.766864292200    -19.780419874900    -19.810682569100
     304  102  1   0.96400    -34.191161288700    -18.782868182800     38.894516788900
     305  102  2  -0.48200    -33.826721170400    -19.024049445900     38.560578174000
     306  102  2  -0.48200    -34.555601407000    -18.541686919700     39.228455403700
     307  103  1   0.96400    -39.127360706300     -9.983347444060     18.730016126200
     308  103  2  -0.48200    -39.058275914100     -9.720548372840     19.208204310500
     309  103  2  -0.48200    -39.196445498500    -10.246146515300     18.251827941800
     310  104  1   0.96400    -34.031411066300     35.796250600300     16.222027160500
     311  104  2  -0.48200    -33.675083932600     36.172818020000     16.038375446100
     312  104  2  -0.48200    -34.387738200000     35.419683180500     16.405678874800
     313  105  1   0.96400     26.346703566800    -16.786301821000    -12.910531436400
     314  105  2  -0.48200     26.847393764300    -16.804972194800    -12.683681831400
     315  105  2  -0.48200     25.846013369300    -16.767631447200    -13.137381041400
     316  106  1   0.96400     -0.847248536924      6.512247369120    -24.168361628900
     317  106  2  -0.48200     -0.872580839012      7.035021553990    -23.999348534400
     318  106  2  -0.48200     -0.821916234837      5.989473184260    -24.337374723400
     319  107  1   0.96400     -5.664102766030     23.145157316700    -22.247917784800
     320  107  2  -0.48200     -5.979747330510     23.126803118100    -21.797882639100
     321  107  2  -0.48200     -5.348458201540     23.163511515300    -22.697952930400
     322  108  1   0.96400     23.862797572200     15.665899901700    -31.320638507600
     323  108  2  -0.48200     23.992683623500     15.596415600500    -31.850545618000
     324  108  2  -0.48200     23.732911521000     15.735384202800    -30.790731397300
     325  109  1   0.96400    -26.549676302900      5.010694473830    -35.391949260200
     326  109  2  -0.48200    -26.288601065800      5.408657365830    -35.116331305000
     327  109  2  -0.48200    -26.810751539900      4.612731581820    -35.667567215300
     328  110  1   0.96400    -15.447116021200     13.163962596500    -11.266169749200
     329  110  2  -0.48200    -15.659938914300     12.692047427000    -11.080421293100
     330  110  2  -0.48200    -15.234293128100     13.635877766100    -11.451918205200
     331  111  1   0.96400     -7.328303169590     24.028607663100     -4.518232184390
     332  111  2  -0.48200     -7.810952618750     24.086870890400     -4.775438143830
     333  111  2  -0.48200     -6.845653720440     23.970344435700     -4.261026224950
     334  112  1   0.96400    -29.660170657800    -37.353780088700     -4.403434675780
     335  112  2  -0.48200    -29.650491322700    -36.804728177900     -4.434229311990
     336  112  2  -0.48200    -29.669849993000    -37.902831999600     -4.372640039560
     337  113  1   0.96400     23.845081621800     28.684172344600    -11.414047410100
     338  113  2  -0.48200     23.413519274400     28.607327913200    -11.081859400500
     339  113  2  -0.48200     24.276643969100     28.761016776000    -11.746235419700
     340  114  1   0.96400    -32.398078426000     24.741057208100     -5.759417727780