LAMMPS Atom File

         4500 atoms
         3000 bonds
         1500 angles
           0 dihedrals
           0 impropers

           2 atom types
           1 bond types
           1 angle types

         0.0  56.4088465162 xlo xhi
         0.0  56.4088465162 ylo yhi
         0.0  56.4088465162 zlo zhi

Masses

         1   15.9994
         2   1.00794

Atoms

       1    1  1  -0.84760    -20.888472350000      7.108226277910    -21.166345832300
       2    1  2   0.42380    -21.474886445800      6.778864993410    -21.906372624100
       3    1  2   0.42380    -20.669536866200      6.350145964850    -20.552031993300
       4    2  1  -0.84760    -26.157184575000    -17.828226304600    -13.468079216000
       5    2  2   0.42380    -26.162206497200    -18.505603602100    -14.203697851600
       6    2  2   0.42380    -25.421582499900    -17.169592830000    -13.626482288300
       7    3  1  -0.84760    -12.759452499800     21.026357536300     -8.382552412500
       8    3  2   0.42380    -12.067246772700     20.740625263700     -9.045280335370
       9    3  2   0.42380    -12.318657029400     21.236914651300     -7.509990062570
      10    4  1  -0.84760     24.647759165300    -15.720506867500      8.315191552260
      11    4  2   0.42380     23.695132353000    -15.961505165600      8.500723158190
      12    4  2   0.42380     24.679227951500    -14.970247592200      7.654797173570
      13    5  1  -0.84760      2.986209371500     13.047551407500    -12.299360351600
      14    5  2   0.42380      3.546099726190     12.283754354900    -11.978211082100
      15    5  2   0.42380      2.344432820920     12.721617240300    -12.993543164500
      16    6  1  -0.84760     -8.609270497780    -18.291893252300     10.886299432500
      17    6  2   0.42380     -9.246051599140    -17.599000615800     11.224544348500
      18    6  2   0.42380     -7.733250020650    -17.861569163000     10.668562660600
      19    7  1  -0.84760    -21.044538995300     -5.185067690450     26.364256301900
      20    7  2   0.42380    -21.476034160600     -4.578323011290     25.696668991800
      21    7  2   0.42380    -20.641417832400     -5.968378818180     25.891057606600
      22    8  1  -0.84760     26.938009981800     25.869884934500    -19.669165726600
      23    8  2   0.42380     27.643235525700     25.355506659200    -20.157091870700
      24    8  2   0.42380     27.325117731700     26.727547839400    -19.330695740500
      25    9  1  -0.84760    -16.873870826400      2.498505451610     24.651104140300
      26    9  2   0.42380    -16.541072030100      1.564883593270     24.518457290400
      27    9  2   0.42380    -17.362775291600      2.797665195080     23.831667826800
      28   10  1  -0.84760    -11.976606906500    -24.867786814800      1.082527673220
      29   10  2   0.42380    -11.043718471000    -24.583688814500      0.861151312232
      30   10  2   0.42380    -12.036432025000    -25.865629860300      1.055505241760
      31   11  1  -0.84760     -0.410415396957     13.932928434400     15.910880581500
      32   11  2   0.42380      0.178985120089     13.474199487400     16.575842823900
      33   11  2   0.42380     -0.947884885398     14.638478222100     16.372752908100
      34   12  1  -0.84760    -19.513160241500     10.503837771600     23.304509630300
      35   12  2   0.42380    -20.273917523600     10.560017146800     23.951110152700
      36   12  2   0.42380    -19.812102692400     10.025334069900     22.478877982100
      37   13  1  -0.84760    -23.166437278400     17.558868771300     12.262009108000
      38   13  2   0.42380    -23.539101244600     16.972728009300     11.542592277900
      39   13  2   0.42380    -22.960596149500     17.005790441200     13.069309418000
      40   14  1  -0.84760     11.677888953700      3.971069466460     21.409872196800
      41   14  2   0.42380     12.561785300800      3.919327550660     21.874684010000
      42   14  2   0.42380     11.035441473600      3.339697463000     21.844188474000
      43   15  1  -0.84760    -14.054278183600    -22.172655269300     -4.287014924390
      44   15  2   0.42380    -15.051539938500    -22.140286407600     -4.220522451560
      45   15  2   0.42380    -13.719348784800    -23.015667358400     -3.866119550810
      46   16  1  -0.84760    -25.925007632500     11.361886230500     -4.657527252870
      47   16  2   0.42380    -26.274658963000     10.436033982100     -4.514203977500
      48   16  2   0.42380    -25.012323179200     11.314381647200     -5.063421824550
      49   17  1  -0.84760      4.556656595840      2.615151866620     21.010370556700
      50   17  2   0.42380      5.013888274290      2.285551014460     20.184354533600
      51   17  2   0.42380      5.167945313660      3.232063450700     21.506098507200
      52   18  1  -0.84760    -14.550476690400      7.639811334210      8.488607768750
      53   18  2   0.42380    -15.198520063100      7.028731953500      8.034051086210
      54   18  2   0.42380    -14.953749562800      7.981459209180      9.337517493000
      55   19  1  -0.84760     14.209107419900     -0.377178830312     20.059607622200
      56   19  2   0.42380     13.228523854100     -0.353453020595     19.864946490200
      57   19  2   0.42380     14.629130529100     -1.137050997710     19.563447489800
      58   20  1  -0.84760     -1.265515999650     -5.949015617940     -6.096751492180
      59   20  2   0.42380     -1.231325651360     -6.595551199500     -5.334634203390
      60   20  2   0.42380     -2.124282575810     -5.437833893260     -6.061920299130
      61   21  1  -0.84760    -11.262004340300     25.149811516300     15.367532592900
      62   21  2   0.42380    -12.056353069400     25.179860604600     15.974250936800
      63   21  2   0.42380    -10.542133589900     25.740912956200     15.731380350200
      64   22  1  -0.84760     12.159100211900     -6.110873865680     26.876840264900
      65   22  2   0.42380     11.260223033500     -5.692875108120     27.008357779800
      66   22  2   0.42380     12.372245584800     -6.696083211520     27.659207871400
      67   23  1  -0.84760    -23.619091433500     14.548448027400    -20.262711833500
      68   23  2   0.42380    -23.949022924600     14.416398362300    -19.327988293000
      69   23  2   0.42380    -22.874719889700     15.216213529700    -20.262223371600
      70   24  1  -0.84760    -17.128549620400    -22.915317639000    -25.412579703200
      71   24  2   0.42380    -18.081985895400    -23.169491680000    -25.574921399800
      72   24  2   0.42380    -16.630140254000    -22.919839864900    -26.279509719400
      73   25  1  -0.84760     19.700929075800    -13.884920823900     13.362158484000
      74   25  2   0.42380     19.801078868000    -14.661810906200     13.983778801400
      75   25  2   0.42380     19.215354635700    -14.177594200800     12.538411097000
      76   26  1  -0.84760     -9.936258264480     -9.624689003710    -18.022190507600
      77   26  2   0.42380    -10.635228690000    -10.158536062700    -18.498055679500
      78   26  2   0.42380    -10.248386058300     -8.679810132710    -17.923295818900
      79   27  1  -0.84760     13.137274378900     13.672218085000      5.738370487540
      80   27  2   0.42380     13.410122455400     14.473798370100      5.206371452120
      81   27  2   0.42380     12.143918403300     13.565666216500      5.694889399750
      82   28  1  -0.84760     11.850603622400     -0.748591842792     -1.240225833140
      83   28  2   0.42380     10.968391044000     -1.045395750370     -1.605750670910
      84   28  2   0.42380     11.700895609200     -0.105592569388     -0.489133664901
      85   29  1  -0.84760     -9.796728168380     11.976807971800     -3.621442066080
      86   29  2   0.42380     -9.961561183940     11.156773167200     -3.073379116980
      87   29  2   0.42380    -10.073805530100     11.806909687600     -4.567149583550
      88   30  1  -0.84760     -1.371194007480     21.470211003400     -3.798810014830
      89   30  2   0.42380     -1.438544412510     21.269081956200     -2.821563357460
      90   30  2   0.42380     -2.232682463510     21.865143471000     -4.117974527440
      91   31  1  -0.84760     -0.857177661016    -24.994956154400    -20.382902480100
      92   31  2   0.42380     -1.764635683170    -25.272739187000    -20.698111180500
      93   31  2   0.42380     -0.161809128346    -25.373483247300    -20.993786956700
      94   32  1  -0.84760     20.219017836000      0.891302372626      8.450244229740
      95   32  2   0.42380     20.612517815300      0.273898198442      7.769090904880
      96   32  2   0.42380     19.327898658200      1.214553354320      8.131786361410
      97   33  1  -0.84760      5.077814685150    -27.256956073500      8.723887296540
      98   33  2   0.42380      4.628740548760    -27.551116913900      9.567570779860
      99   33  2   0.42380      5.582602250210    -28.024960302800      8.329731213350
     100   34  1  -0.84760    -21.419842725700    -12.656987294300    -14.072101344700
     101   34  2   0.42380    -21.742088555900    -12.621667028600    -15.018098228300
     102   34  2   0.42380    -21.417642043000    -11.734505118900    -13.686067935400
     103   35  1  -0.84760    -12.515589178700    -13.003112927900    -13.735062338500
     104   35  2   0.42380    -12.337459454900    -12.422377155000    -12.940697331900
     105   35  2   0.42380    -12.482084585000    -13.963891472300    -13.459776975800
     106   36  1  -0.84760    -17.177023687300     10.892105033200     13.476279202000
     107   36  2   0.42380    -16.289008709400     11.079147104500     13.896332368600
     108   36  2   0.42380    -17.884194162600     10.879880177800     14.183216590800
     109   37  1  -0.84760     13.192275399300    -22.398691318200    -17.596207421000
     110   37  2   0.42380     13.451896015800    -21.447834309100    -17.427482544700
     111   37  2   0.42380     12.797234332800    -22.788942408800    -16.764554463300
     112   38  1  -0.84760      1.171469188680     12.965076112400     26.375863978300
     113   38  2   0.42380      1.176788058550     13.832490505900     26.873421994700
     114   38  2   0.42380      1.805229048760     12.326513142800     26.812425283900
     115   39  1  -0.84760      9.432304008100     10.276346227500     -2.438799468640
     116   39  2   0.42380      9.358282305150     11.209035835800     -2.791802134610
     117   39  2   0.42380      8.847102917430      9.669130116980     -2.976226932180
     118   40  1  -0.84760    -26.856888102900    -28.171202682800    -15.925122774600
     119   40  2   0.42380    -26.525419994600    -28.594820419228    -16.768139326300
     120   40  2   0.42380    -27.556363271200    -27.491620341900    -16.146261488700
     121   41  1  -0.84760      7.404577112850     20.594191495400    -27.943007686400
     122   41  2   0.42380      7.893627312060     21.059216984700    -28.680965135628
     123   41  2   0.42380      7.106279299270     19.692846333600    -28.257006593328
     124   42  1  -0.84760     11.008865362700     21.577959352100     27.855056711100
     125   42  2   0.42380     10.414484424000     22.374085858800     27.968607954700
     126   42  2   0.42380     11.926430443800     21.797012266800     28.186855057300
     127   43  1  -0.84760    -16.657440342500    -18.332005748500     21.616109720400
     128   43  2   0.42380    -17.553179485000    -17.960076784000     21.859667175700
     129   43  2   0.42380    -16.471417856400    -19.143209990300     22.170495247700
     130   44  1  -0.84760     23.947318890900    -21.903879317900    -20.378678239900
     131   44  2   0.42380     24.094039238800    -21.297069702200    -21.159866584500
     132   44  2   0.42380     23.199144156200    -21.549849489200    -19.817521001000
     133   45  1  -0.84760    -14.995909475200      0.404012130247    -13.302534695500
     134   45  2   0.42380    -14.624237340200      0.229736636920    -14.214394266100
     135   45  2   0.42380    -15.082173321300     -0.460271229793    -12.806981648500
     136   46  1  -0.84760    -10.888398249500      3.695895135000    -14.589837737000
     137   46  2   0.42380    -10.166060749600      4.296742440330    -14.932198733500
     138   46  2   0.42380    -10.568741759000      2.748476052450    -14.604562209300
     139   47  1  -0.84760      8.985562639980     13.339770668100     19.927592991400
     140   47  2   0.42380      8.050449366610     12.996911576200     19.838089868300
     141   47  2   0.42380      9.292422858710     13.228255244300     20.872791973900
     142   48  1  -0.84760     -2.987334570470     14.605147499300      7.748799705790
     143   48  2   0.42380     -2.184833309550     14.750013987500      8.327596238950
     144   48  2   0.42380     -3.803516757470     14.534463861300      8.322254552250
     145   49  1  -0.84760     11.703505499500    -19.811381949600     15.323785935900
     146   49  2   0.42380     10.900488283300    -19.962923471500     14.747419283800
     147   49  2   0.42380     12.530009893000    -20.046897079900     14.812490413800
     148   50  1  -0.84760     16.714610143100    -17.493731023200    -25.623515719500
     149   50  2   0.42380     16.672057693500    -18.431539553900    -25.968050839200
     150   50  2   0.42380     16.658056787400    -17.502528801500    -24.625154904400
     151   51  1  -0.84760     -5.088095796090      2.671491395140    -25.337276321600
     152   51  2   0.42380     -5.076089722100      1.671564879890    -25.335597546100
     153   51  2   0.42380     -4.195300756750      3.015059762050    -25.628614261100
     154   52  1  -0.84760    -17.557356451900      6.855141291410     -8.863681973450
     155   52  2   0.42380    -18.298711169400      7.316574426230     -8.376370322780
     156   52  2   0.42380    -16.797106260000      6.690560968390     -8.235245052970
     157   53  1  -0.84760     15.348545565000     19.144438521700     21.580830615900
     158   53  2   0.42380     14.940171630900     18.846721041700     22.443729817400
     159   53  2   0.42380     16.308920100600     19.379719858500     21.730240936600
     160   54  1  -0.84760     13.214044896200     -4.070645726780     -3.662570684660
     161   54  2   0.42380     13.369180618500     -4.995806982130     -4.008994643520
     162   54  2   0.42380     13.548888550100     -4.006227795950     -2.722501507620
     163   55  1  -0.84760    -15.170812385000    -11.778012318400      4.263389809210
     164   55  2   0.42380    -15.515046484700    -11.421664509600      5.132020411780
     165   55  2   0.42380    -14.572004926600    -12.559715657500      4.437658330670
     166   56  1  -0.84760    -10.541406815900     -6.652119077660     -1.556943920160
     167   56  2   0.42380    -10.171786279000     -6.643256586330     -2.486084445030
     168   56  2   0.42380    -11.274534142000     -7.329502785600     -1.496316896620
     169   57  1  -0.84760     24.223621842600     -5.676005413980    -10.503625489300
     170   57  2   0.42380     24.250469054700     -4.766475798120    -10.088854341500
     171   57  2   0.42380     24.633747763900     -5.639010517880    -11.414903770800
     172   58  1  -0.84760    -11.406377383200     -8.721002908190     26.397181881400
     173   58  2   0.42380    -10.924789536500     -7.992359094230     25.910200014900
     174   58  2   0.42380    -10.778231468700     -9.480454556220     26.566491965100
     175   59  1  -0.84760      3.710857512960     13.823289494200     15.407803536300
     176   59  2   0.42380      3.418936979040     14.498130778000     14.730033926800
     177   59  2   0.42380      2.907898495150     13.366098195500     15.790207683900
     178   60  1  -0.84760    -11.460571747900      8.116087907120     25.300395414400
     179   60  2   0.42380    -12.438178166800      7.919859353100     25.224368811600
     180   60  2   0.42380    -10.973398577500      7.284396976260     25.566764514500
     181   61  1  -0.84760    -19.371971324900     -3.020869220310     -3.200018027360
     182   61  2   0.42380    -19.217100551100     -3.832666441080     -3.763045838200
     183   61  2   0.42380    -20.354150542000     -2.893533278730     -3.061780755090
     184   62  1  -0.84760     -2.188227430310     23.332438005600     19.733621527100
     185   62  2   0.42380     -1.954157447840     22.678444163100     20.452998547300
     186   62  2   0.42380     -2.841023438790     24.000762265700     20.090272693800
     187   63  1  -0.84760     -9.844666344500     26.975133970100     -2.206247625520
     188   63  2   0.42380    -10.763735412800     26.952000392900     -2.599664561230
     189   63  2   0.42380     -9.215604743940     26.472231504100     -2.799012850890
     190   64  1  -0.84760    -15.550304095300    -26.462019858500      5.629881969700
     191   64  2   0.42380    -15.315815387700    -27.267903609900      5.086221758570
     192   64  2   0.42380    -14.870526455200    -26.338309299500      6.352791409110
     193   65  1  -0.84760    -13.479391834000     20.324010006000    -24.214481612200
     194   65  2   0.42380    -12.865341338200     21.071925013600    -23.962360351500
     195   65  2   0.42380    -13.651721866500     20.351762955100    -25.199129840600
     196   66  1  -0.84760    -16.838657643900     11.045427639900    -20.900269285000
     197   66  2   0.42380    -16.527890602800     10.095122585000    -20.881718032300
     198   66  2   0.42380    -17.670019416800     11.135007410500    -20.351805004300
     199   67  1  -0.84760    -12.312901619300     -5.006519625000    -15.769718377900
     200   67  2   0.42380    -12.483808441200     -4.930085469840    -16.752036390700
     201   67  2   0.42380    -12.853390905400     -5.759808785460    -15.394982774600
     202   68  1  -0.84760      2.542159488390     27.497999457100     21.727857405500
     203   68  2   0.42380      1.666861364470     27.765641359500     22.130624095200
     204   68  2   0.42380      3.152533436470     27.166311170000     22.447181062600
     205   69  1  -0.84760    -25.966255402500    -23.527770952200     14.469127550600
     206   69  2   0.42380    -25.193844427000    -24.075302343200     14.147272520100
     207   69  2   0.42380    -25.636790550500    -22.824641227000     15.099255712700
     208   70  1  -0.84760    -14.653671793600     -5.794698677040     12.615225539300
     209   70  2   0.42380    -14.181403598100     -5.273702177940     11.904222445500
     210   70  2   0.42380    -14.799215591400     -6.732533550040     12.300133879800
     211   71  1  -0.84760     -4.974500641020    -20.474188276600      7.639161330890
     212   71  2   0.42380     -5.619891482620    -19.815166517100      7.252947682640
     213   71  2   0.42380     -4.389025236060    -20.015039448600      8.307293730880
     214   72  1  -0.84760     22.289412564100    -19.636666984700      2.226347445490
     215   72  2   0.42380     22.411662266900    -19.118447188000      1.379882294160
     216   72  2   0.42380     21.939441943100    -19.030590138300      2.940624297100
     217   73  1  -0.84760     13.122455666700      3.961209871910     23.525461310000
     218   73  2   0.42380     14.083452666500      3.953272079900     23.249016455100
     219   73  2   0.42380     12.776721501300      4.899258312780     23.502374312900
     220   74  1  -0.84760     -0.078652365886     -7.298665576660      9.826224326800
     221   74  2   0.42380      0.899374356836     -7.123119371690      9.713764291400
     222   74  2   0.42380     -0.289507167183     -8.224178495810      9.511635564670
     223   75  1  -0.84760     24.170692720800      6.989464396200    -25.446405729600
     224   75  2   0.42380     25.164448457000      7.071538306520    -25.370818627300
     225   75  2   0.42380     23.940114212600      6.488373613240    -26.280516980500
     226   76  1  -0.84760      1.614045522400    -12.266264853200    -21.902738071700
     227   76  2   0.42380      1.452989221810    -12.862247954600    -21.116058333300
     228   76  2   0.42380      0.893220004402    -12.407816124000    -22.581246590700
     229   77  1  -0.84760     15.429438552500    -15.055292692700      4.097113800160
     230   77  2   0.42380     16.223837970000    -15.658823151600      4.165528350920
     231   77  2   0.42380     14.893487689600    -15.112989727200      4.939389126180
     232   78  1  -0.84760     -2.661152698650      9.302276945800    -15.746861023100
     233   78  2   0.42380     -3.340268620860     10.033283054100    -15.813431541200
     234   78  2   0.42380     -3.034430214590      8.463444827010    -16.143124284900
     235   79  1  -0.84760     18.031323540600      6.137281795880    -24.340987141700
     236   79  2   0.42380     18.205729041500      6.398841338900    -25.290286528900
     237   79  2   0.42380     18.092223605300      6.945943399080    -23.755873824700
     238   80  1  -0.84760      1.070075533700    -23.391535548700    -10.226001299600
     239   80  2   0.42380      1.626497207660    -23.958058266300     -9.618179836360
     240   80  2   0.42380      0.909842347924    -22.501853804100     -9.798459816870
     241   81  1  -0.84760    -26.503626937900    -16.802947018100     24.335730250300
     242   81  2   0.42380    -27.352156338900    -17.101126635800     23.898595521400
     243   81  2   0.42380    -26.115000814700    -16.038009776000     23.822075938500
     244   82  1  -0.84760      8.435437493670     -5.294297992940     -9.507462226160
     245   82  2   0.42380      7.777819630190     -5.407703785330    -10.252229217800
     246   82  2   0.42380      8.694525414770     -4.331139809380     -9.435352846940
     247   83  1  -0.84760     21.030884697700      7.407915003740     22.445727516200
     248   83  2   0.42380     21.220951693800      6.605332128270     21.880276134600
     249   83  2   0.42380     20.931414084000      8.212311976390     21.860021867100
     250   84  1  -0.84760     21.355758867500    -25.975222901200     27.499482599700
     251   84  2   0.42380     20.764351124200    -25.875343512500     28.299645701128
     252   84  2   0.42380     21.528029691000    -25.075715916700     27.097973012900
     253   85  1  -0.84760     11.946759784900    -11.271498188000    -15.053274147800
     254   85  2   0.42380     12.094566652600    -10.352522820800    -15.418838648700
     255   85  2   0.42380     10.995854679800    -11.541456662600    -15.204607895100
     256   86  1  -0.84760    -18.413025763600      6.225099347020      5.362454666350
     257   86  2   0.42380    -18.671205099400      7.176682717380      5.529285478440
     258   86  2   0.42380    -17.432898295300      6.174372391950      5.170681566300
     259   87  1  -0.84760      9.553462797780     20.606251138400     -6.041534903730
     260   87  2   0.42380      9.262842995470     20.842577358700     -6.968729623350
     261   87  2   0.42380      9.501640304590     21.417437750100     -5.459048242850
     262   88  1  -0.84760     25.087701852900    -16.463376769100      0.787562107995
     263   88  2   0.42380     24.828382112400    -16.417771063800      1.752276258320
     264   88  2   0.42380     24.312137308400    -16.792960926000      0.249162701476
     265   89  1  -0.84760     14.242444148000     13.990790946700     -5.648270793850
     266   89  2   0.42380     14.538576784800     13.373707362300     -6.377320388360
     267   89  2   0.42380     14.719110429900     14.865316412400     -5.737682569050
     268   90  1  -0.84760      8.927241301170     11.585647513800     13.944953430200
     269   90  2   0.42380      9.733938178670     11.733053292200     13.372667064500
     270   90  2   0.42380      8.106553151810     11.597985230700     13.373710275100
     271   91  1  -0.84760     -2.564617928850     25.970730374700    -16.400150000000
     272   91  2   0.42380     -2.447899082720     26.941594131900    -16.190864845200
     273   91  2   0.42380     -1.682529467190     25.577182603100    -16.659071025200
     274   92  1  -0.84760     -0.578568401705      5.944495179260    -12.238320042800
     275   92  2   0.42380     -0.683627343328      6.421135940030    -13.111117959800
     276   92  2   0.42380      0.323786066757      6.143826616730    -11.856189971600
     277   93  1  -0.84760     27.699380178900     27.857393576100    -26.997398864000
     278   93  2   0.42380     27.054951430800     27.296442546800    -26.477739810900
     279   93  2   0.42380     28.316922266928     27.263944919800    -27.513596947800
     280   94  1  -0.84760     15.467214056900     23.103664055400     28.119658678100
     281   94  2   0.42380     15.132235744400     22.960602444400     29.050960404428
     282   94  2   0.42380     15.234156954100     24.028822419700     27.820048284800
     283   95  1  -0.84760    -21.829603026200     28.039384258300     -5.498560118120
     284   95  2   0.42380    -22.754444971800     28.411831143228     -5.421419379290
     285   95  2   0.42380    -21.199940434000     28.595690804128     -4.956298145360
     286   96  1  -0.84760    -14.591791461900    -10.292371461700    -24.107004852800
     287   96  2   0.42380    -14.681477423800     -9.426980628250    -23.613998632200
     288   96  2   0.42380    -15.446432631100    -10.806681501800    -24.035775262100
     289   97  1  -0.84760     -3.557051761950    -22.810687824200      5.078697252610
     290   97  2   0.42380     -4.296570431210    -22.152700383500      5.220699596350
     291   97  2   0.42380     -3.148121986790    -23.047830112900      5.959912308030
     292   98  1  -0.84760    -11.658075544900    -11.107496749800     10.569716885500
     293   98  2   0.42380    -11.014694684500    -10.387102313200     10.828739904100
     294   98  2   0.42380    -12.043306011100    -11.522493133800     11.393959258300
     295   99  1  -0.84760    -24.643085163300      1.544074284240     -5.348586092600
     296   99  2   0.42380    -25.416648077200      0.912208010112     -5.300156453240
     297   99  2   0.42380    -24.965216584900      2.477881802990     -5.192910580250
     298  100  1  -0.84760    -22.110330156000     -7.052659262290     10.220524524600
     299  100  2   0.42380    -21.349143854200     -7.644392235300      9.955105040380
     300  100  2   0.42380    -21.936600696600     -6.673584847060     11.129436326000
     301  101  1  -0.84760     -5.521951532510    -14.145551841700      0.228395829363
     302  101  2   0.42380     -6.173394013850    -14.833646058500     -0.091211808724
     303  101  2   0.42380     -5.639706499110    -13.304459757300     -0.299522604962
     304  102  1  -0.84760    -27.769620652800    -23.041398380800     -4.588913988510
     305  102  2   0.42380    -28.060430857500    -22.579271396200     -3.751138317510
     306  102  2   0.42380    -28.570810763228    -23.404427846800     -5.064628202910
     307  103  1  -0.84760    -23.092549715200    -22.033583834000     15.656393889000
     308  103  2   0.42380    -23.881490882200    -21.620291546400     16.111104038500
     309  103  2   0.42380    -22.758036269300    -21.417203818200     14.943528943500
     310  104  1  -0.84760      1.108511539310     22.667100894300     11.103068426200
     311  104  2   0.42380      0.530143447825     23.335332285300     11.570997009300
     312  104  2   0.42380      1.420113382550     23.047683599600     10.232401385500
     313  105  1  -0.84760    -19.630012566400     19.964413413600    -16.427763066000
     314  105  2   0.42380    -18.673351408000     19.693740603500    -16.320358886300
     315  105  2   0.42380    -20.079526474200     19.961537410300    -15.534494363300
     316  106  1  -0.84760     24.498510980600    -25.490616064000    -11.207428176000
     317  106  2   0.42380     24.978646443000    -25.870764666900    -11.997970380800
     318  106  2   0.42380     24.324143611000    -24.517753035800    -11.359525344700
     319  107  1  -0.84760    -19.178583749900    -18.153723046900     26.070375389100
     320  107  2   0.42380    -20.158752876400    -18.079083618800     25.886806766500
     321  107  2   0.42380    -18.886163706000    -19.101023198900     25.939558953400
     322  108  1  -0.84760     22.066445968000     11.341701972700    -19.616716394100
     323  108  2   0.42380     21.072189358400     11.327050746900    -19.510701603900
     324  108  2   0.42380     22.398677953100     10.411618144100    -19.773451776200
     325  109  1  -0.84760     22.666038938200    -10.528498969800     14.080071249400
     326  109  2   0.42380     22.937877906300    -10.350667831400     13.134301900300
     327  109  2   0.42380     23.405099327500    -11.006120479400     14.555115915100
     328  110  1  -0.84760     18.918656767600     22.725804937700     14.063905275600
     329  110  2   0.42380     19.898047498800     22.525632225400     14.090825172500
     330  110  2   0.42380     18.681357874000     23.109897484900     13.171626087100
     331  111  1  -0.84760     -8.421966574730    -26.586539392300    -27.309224052700
     332  111  2   0.42380     -8.528864930260    -25.783803891000    -27.895899820500
     333  111  2   0.42380     -7.566946389090    -26.512744354900    -26.795906631700
     334  112  1  -0.84760     -3.203848798870     11.645916263300     -8.319446107320
     335  112  2   0.42380     -4.129677127900     11.565053735400     -7.950253533260
     336  112  2   0.42380     -2.780203973450     12.484222736600     -7.976273674370
     337  113  1  -0.84760     19.003263484700     22.221817996700    -18.514680927900
     338  113  2   0.42380     18.378433179800     22.039118596600    -17.755597257100
     339  113  2   0.42380     19.351671674300     23.156344048400    -18.442066934300
     340  114  1  -0.84760     15.575340515600     27.194888456300    -25.141126109100