LAMMPS Atom File

         4500 atoms
         3000 bonds
         1500 angles
           0 dihedrals
           0 impropers

           2 atom types
           1 bond types
           1 angle types

         0.0  447.717311501 xlo xhi
         0.0  447.717311501 ylo yhi
         0.0  447.717311501 zlo zhi

Masses

         1   15.9994
         2   1.00794

Atoms

       1    1  1  -0.84760   -133.807530270000     67.759335791400   -146.864707397000
       2    1  2   0.42380   -133.009331595000     68.157688334100   -146.412828954000
       3    1  2   0.42380   -134.126595263000     68.377166311500   -147.583374899000
       4    2  1  -0.84760   -197.958201145000   -156.028791443000    -87.891029687200
       5    2  2   0.42380   -197.282809519000   -156.646750392000    -87.488571131800
       6    2  2   0.42380   -198.330497099000   -156.438636779000    -88.723749642400
       7    3  1  -0.84760    -89.582653894300    138.036028435000    -32.373897663300
       8    3  2   0.42380    -89.910163740800    138.973293580000    -32.493360407100
       9    3  2   0.42380    -90.364100613300    137.414819791000    -32.315238931800
      10    4  1  -0.84760    186.428673244000   -128.766223720000     71.947235357900
      11    4  2   0.42380    187.381569429000   -128.629985690000     72.218211483200
      12    4  2   0.42380    185.898752170000   -127.947729509000     72.169160755800
      13    5  1  -0.84760     -6.366329999310    111.620455111000    -89.481760472400
      14    5  2   0.42380     -6.631542074390    112.560541828000    -89.267518740400
      15    5  2   0.42380     -5.786678283400    111.615127520000    -90.296607393600
      16    6  1  -0.84760    -71.073932868300   -162.280037831000     89.195720415100
      17    6  2   0.42380    -70.315655627700   -162.779703083000     89.614468862600
      18    6  2   0.42380    -71.936594530500   -162.582191294000     89.601328774700
      19    7  1  -0.84760   -171.909858502000    -74.163390705600    210.626259614000
      20    7  2   0.42380   -171.263156823000    -74.752729606700    210.142052429000
      21    7  2   0.42380   -172.839710543000    -74.365655316500    210.318909312000
      22    8  1  -0.84760    220.006933516000    195.143338925000   -161.012787080000
      23    8  2   0.42380    220.142971342000    195.203882888000   -160.023935150000
      24    8  2   0.42380    219.036818765000    194.998596767000   -161.207535835000
      25    9  1  -0.84760   -132.278471586000     11.070792567800    205.112050171000
      26    9  2   0.42380   -132.645249525000     10.771489954200    204.231202914000
      27    9  2   0.42380   -131.326632549000     10.775476739500    205.194457746000
      28   10  1  -0.84760   -101.486045680000   -205.340142404000     11.346986291600
      29   10  2   0.42380   -101.511039147000   -206.337253180000     11.418717928400
      30   10  2   0.42380   -102.413056103000   -204.976132977000     11.437257059700
      31   11  1  -0.84760     -5.270916670250    105.203313584000    129.970061674000
      32   11  2   0.42380     -5.852296740750    105.949861626000    130.293578652000
      33   11  2   0.42380     -5.752254567800    104.689846824000    129.259663395000
      34   12  1  -0.84760   -144.878562422000    108.348944367000    171.562077697000
      35   12  2   0.42380   -145.221783609000    107.507002619000    171.145744526000
      36   12  2   0.42380   -143.903003175000    108.444891941000    171.364395578000
      37   13  1  -0.84760   -171.552352218000    171.865607828000     92.913829758500
      38   13  2   0.42380   -171.872880371000    171.790106528000     91.969604543200
      39   13  2   0.42380   -171.170172584000    170.989312971000     93.207165831000
      40   14  1  -0.84760    106.320865353000     29.064390188300    189.620518011000
      41   14  2   0.42380    106.304448031000     29.525028413400    190.507954148000
      42   14  2   0.42380    105.505115960000     29.315528472100    189.099478194000
      43   15  1  -0.84760    -85.285610047600   -175.742234932000    -38.177309234300
      44   15  2   0.42380    -85.147053802500   -175.489680028000    -39.134919900200
      45   15  2   0.42380    -84.454555861500   -175.545442935000    -37.657095961100
      46   16  1  -0.84760    222.804972574000     97.575527726600    -31.061207876200
      47   16  2   0.42380    222.566014883000     97.389480658500    -32.014248122300
      48   16  2   0.42380    223.775233976000     97.381246920100    -30.916820271700
      49   17  1  -0.84760     20.361084464600     23.078324663800    168.788085598000
      50   17  2   0.42380     20.850513539700     23.859638563300    169.175393965000
      51   17  2   0.42380     20.246261061600     23.211627702900    167.803684315000
      52   18  1  -0.84760   -119.481241383000     43.483361145300     55.297892165800
      53   18  2   0.42380   -120.063189115000     44.042739110500     55.888174410600
      54   18  2   0.42380   -119.659776906000     43.711704537900     54.340821446300
      55   19  1  -0.84760    109.677305631000    -31.312860289900    185.561780991000
      56   19  2   0.42380    109.621968342000    -31.009286546600    184.610581344000
      57   19  2   0.42380    110.604778293000    -31.632143321900    185.756338969000
      58   20  1  -0.84760    -35.678467091300      2.267965170040    -49.448937052200
      59   20  2   0.42380    -34.755534935900      2.652670299060    -49.463015410900
      60   20  2   0.42380    -35.631306742100      1.296993795360    -49.214436538300
      61   21  1  -0.84760   -114.047236561000    202.316789470000    131.860431108000
      62   21  2   0.42380   -113.102120179000    202.256889022000    131.539234966000
      63   21  2   0.42380   -114.666404674000    202.028417219000    131.130039232000
      64   22  1  -0.84760     82.303166869600    -75.628873787200   -222.689505131000
      65   22  2   0.42380     82.892351543300    -74.822896809600   -222.632386553000
      66   22  2   0.42380     81.886921233300    -75.673783125300   -223.597647588000
      67   23  1  -0.84760   -180.673990281000    123.798724082000   -152.561324556000
      68   23  2   0.42380   -181.646316667000    123.615000600000   -152.705640463000
      69   23  2   0.42380   -180.508401247000    124.783136506000   -152.620590492000
      70   24  1  -0.84760   -138.463207671000   -155.552083850000    215.229447087000
      71   24  2   0.42380   -137.964868318000   -155.172576416000    216.008954622000
      72   24  2   0.42380   -137.814222020000   -155.947427720000    214.579431049000
      73   25  1  -0.84760    160.623923194000   -120.179964614000     98.419537584500
      74   25  2   0.42380    160.724072986000   -120.956854696000     99.041157901900
      75   25  2   0.42380    160.138348754000   -120.472637991000     97.595790197500
      76   26  1  -0.84760    -63.940549260100    -70.742190244200   -143.559405902000
      77   26  2   0.42380    -64.776044502000    -70.219031693800   -143.391320114000
      78   26  2   0.42380    -63.185277399600    -70.339187009800   -143.042537630000
      79   27  1  -0.84760    107.654354044000    112.165447289000     21.992284990800
      80   27  2   0.42380    108.094045183000    112.855561280000     22.567101814700
      81   27  2   0.42380    108.282391969000    111.887852948000     21.265298232600
      82   28  1  -0.84760     75.977762666700    -11.843501135900      3.535393780900
      83   28  2   0.42380     75.629676125500    -12.705203634400      3.904588260890
      84   28  2   0.42380     76.406529245600    -12.010305766500      2.647511223330
      85   29  1  -0.84760    -73.296433824500     89.236124945300    -38.678876111600
      86   29  2   0.42380    -72.710409682100     89.996985294800    -38.400187696000
      87   29  2   0.42380    -72.974293539500     88.869654547000    -39.551759313400
      88   30  1  -0.84760      7.638850483030    156.765707512000    -28.580578186000
      89   30  2   0.42380      8.615431111340    156.551001888000    -28.566730030700
      90   30  2   0.42380      7.190810709250    156.330607502000    -27.799586289400
      91   31  1  -0.84760    -36.915825499300   -197.908208295000   -161.895834594000
      92   31  2   0.42380    -37.067787452000   -198.181905869000   -162.845569928000
      93   31  2   0.42380    -35.963570268300   -198.084367724000   -161.646479766000
      94   32  1  -0.84760    169.227986536000     43.917350777200    106.485517003000
      95   32  2   0.42380    170.201637926000     44.048225474200    106.298769089000
      96   32  2   0.42380    168.689904079000     44.307497098000    105.738353622000
      97   33  1  -0.84760     35.065972639400    220.862873182000     77.563704825800
      98   33  2   0.42380     34.468973563600    221.447198896000     77.014018039600
      99   33  2   0.42380     35.053631846900    221.173844054000     78.514044145000
     100   34  1  -0.84760   -165.676227890000   -112.299629490000   -104.193509552000
     101   34  2   0.42380   -166.521867150000   -112.825964348000   -104.104819871000
     102   34  2   0.42380   -165.245163291000   -112.506908824000   -105.071700072000
     103   35  1  -0.84760    -92.172188144800    -95.330003556700   -109.954649963000
     104   35  2   0.42380    -91.292190406100    -95.714180488000   -109.675343563000
     105   35  2   0.42380    -92.906169642400    -95.763627851300   -109.431925244000
     106   36  1  -0.84760   -144.207290372000    108.113885074000     95.056842255100
     107   36  2   0.42380   -144.886900044000    108.448644017000     95.709580444600
     108   36  2   0.42380   -144.238068278000    107.114818461000     95.026533430800
     109   37  1  -0.84760    108.016720168000   -175.198902743000   -141.014071518000
     110   37  2   0.42380    107.248557081000   -175.690715723000   -141.424005006000
     111   37  2   0.42380    107.682093706000   -174.615103856000   -140.274339141000
     112   38  1  -0.84760     -0.000966808516     97.493068636700    209.037848370000
     113   38  2   0.42380      0.406589728546     96.717051263200    208.556501608000
     114   38  2   0.42380      0.392488576960     97.560512810400    209.954714851000
     115   39  1  -0.84760     94.617397540400     49.011019488500    -14.296326325300
     116   39  2   0.42380     95.263573527900     48.295228794500    -14.561090891600
     117   39  2   0.42380     95.026043007000     49.582291325900    -13.584527638600
     118   40  1  -0.84760   -212.712725376000   -204.673643460000   -158.742589085000
     119   40  2   0.42380   -212.098571941000   -204.284375112000   -159.429091605000
     120   40  2   0.42380   -212.993208464000   -203.958425899000   -158.102438261000
     121   41  1  -0.84760     39.615627441700    162.318601819000   -210.583806837000
     122   41  2   0.42380     40.092251967100    161.446510371000   -210.694647118000
     123   41  2   0.42380     39.564063806000    162.549120264000   -209.612106040000
     124   42  1  -0.84760     80.370430879100    165.458424671000    211.768038848000
     125   42  2   0.42380     80.333713223500    164.939775929000    212.622237477000
     126   42  2   0.42380     79.931452114000    164.932433635000    211.039594565000
     127   43  1  -0.84760   -123.218187383000   -146.368975938000    171.649627898000
     128   43  2   0.42380   -123.192598825000   -145.824891310000    170.810987842000
     129   43  2   0.42380   -123.261994765000   -147.340223181000    171.415619977000
     130   44  1  -0.84760    180.091436665000   -168.803514863000   -155.452026461000
     131   44  2   0.42380    179.256808383000   -168.872739463000   -155.998472786000
     132   44  2   0.42380    179.925773684000   -168.210349038000   -154.664174901000
     133   45  1  -0.84760   -130.509892120000     17.444461506300   -111.624996815000
     134   45  2   0.42380   -129.940782748000     17.801703845600   -110.884394064000
     135   45  2   0.42380   -130.748146717000     16.492473922700   -111.432761574000
     136   46  1  -0.84760    -79.192341444600     19.350355714200   -142.894296626000
     137   46  2   0.42380    -79.156249300900     19.463969848600   -141.901427458000
     138   46  2   0.42380    -79.261070816000     20.247725198300   -143.330191433000
     139   47  1  -0.84760     57.619919327500     99.533153787500    146.546368231000
     140   47  2   0.42380     58.019501366000    100.158280272000    145.875882532000
     141   47  2   0.42380     58.344742423400     98.986847251700    146.966107017000
     142   48  1  -0.84760    -15.618021260300    129.016396550000     57.679216063300
     143   48  2   0.42380    -16.600821339000    128.843807787000     57.744920890300
     144   48  2   0.42380    -15.171402539900    128.726670689000     58.525732834500
     145   49  1  -0.84760     97.248485283600   -150.371973043000    124.632373802000
     146   49  2   0.42380     97.335104036600   -150.689507317000    123.688091441000
     147   49  2   0.42380     97.321464035600   -151.151686224000    125.254243127000
     148   50  1  -0.84760    133.131242242000   -142.280420042000   -203.693518839000
     149   50  2   0.42380    133.793751597000   -142.996294804000   -203.913983526000
     150   50  2   0.42380    132.220246065000   -142.684020692000   -203.608710348000
     151   51  1  -0.84760    -42.642934883700     22.665363375700   -213.270476373000
     152   51  2   0.42380    -43.116693589200     22.965741960800   -212.442632550000
     153   51  2   0.42380    -41.876656519800     23.280018687400   -213.457602846000
     154   52  1  -0.84760   -143.764520322000     60.453569456800    -63.794656823600
     155   52  2   0.42380   -143.576704652000     60.402586866100    -64.775537065900
     156   52  2   0.42380   -142.928509494000     60.706929529400    -63.307938661900
     157   53  1  -0.84760    124.810092251000    183.683525531000    177.885948817000
     158   53  2   0.42380    124.102556105000    183.893128982000    178.560825839000
     159   53  2   0.42380    124.388908261000    183.269026464000    177.079230421000
     160   54  1  -0.84760    104.891978143000    -33.251908720900    -24.904736907500
     161   54  2   0.42380    104.444812965000    -33.992557804800    -24.403256860500
     162   54  2   0.42380    104.925765515000    -33.480962793300    -25.877564048000
     163   55  1  -0.84760   -117.113003800000    -75.626244211500     57.199671865400
     164   55  2   0.42380   -117.390600127000    -75.843600365100     56.263885254300
     165   55  2   0.42380   -116.114888837000    -75.630946470500     57.260863448800
     166   56  1  -0.84760    -58.084566830500    -44.546311498900     21.668576216500
     167   56  2   0.42380    -58.474584195500    -45.403185982700     22.005700190900
     168   56  2   0.42380    -57.126445433100    -44.483503905000     21.947965898000
     169   57  1  -0.84760    218.418020082000    -63.140759559700    -74.563515216900
     170   57  2   0.42380    217.458126854000    -62.876539665900    -74.469745082800
     171   57  2   0.42380    218.980192286000    -62.321032382700    -74.673104304000
     172   58  1  -0.84760    -90.648146795400    -68.503755047400    205.843659680000
     173   58  2   0.42380    -91.254779685800    -68.927446591600    205.170991848000
     174   58  2   0.42380    -90.393363031400    -69.179709392500    206.535158745000
     175   59  1  -0.84760     47.125940132400    102.237666489000    111.951760733000
     176   59  2   0.42380     46.447998008300    102.840589614000    111.531191854000
     177   59  2   0.42380     47.665953129200    102.755090365000    112.615581866000
     178   60  1  -0.84760    -97.078237233400     82.922950342500    185.844543638000
     179   60  2   0.42380    -98.043054365900     82.977101245500    185.587258620000
     180   60  2   0.42380    -96.851349399000     83.685955700700    186.449807824000
     181   61  1  -0.84760   -161.965752172000    -13.277711272800    -14.334633387500
     182   61  2   0.42380   -161.144451887000    -13.066359653800    -13.804731194300
     183   61  2   0.42380   -161.982844539000    -14.254642718900    -14.547501423200
     184   62  1  -0.84760    -11.289143212700    195.789334221000    162.885326974000
     185   62  2   0.42380    -11.473105342800    194.881664985000    162.508107552000
     186   62  2   0.42380    -10.895030884500    195.696668391000    163.799705734000
     187   63  1  -0.84760   -106.837116358000   -217.475713967000    -25.157068961000
     188   63  2   0.42380   -107.383643869000   -217.034742255000    -25.869004090800
     189   63  2   0.42380   -106.233177433000   -216.800180909000    -24.734088036600
     190   64  1  -0.84760   -124.909397101000   -216.461489707000     43.806924998900
     191   64  2   0.42380   -125.473331896000   -216.997939692000     43.179072341300
     192   64  2   0.42380   -124.831225827000   -216.943618739000     44.679530779700
     193   65  1  -0.84760    -89.362578309900    180.231042559000   -181.026781998000
     194   65  2   0.42380    -90.151063584600    180.129424548000   -180.420181016000
     195   65  2   0.42380    -88.582254452700    179.735783271000   -180.644927423000
     196   66  1  -0.84760   -125.167542367000     93.592831480800   -148.704314913000
     197   66  2   0.42380   -125.063654149000     92.689705775200   -148.287696145000
     198   66  2   0.42380   -125.695953822000     94.182761977700   -148.093771432000
     199   67  1  -0.84760    -98.613866482800    -39.802040463400   -126.968514685000
     200   67  2   0.42380    -98.896280426200    -40.660062731300   -126.539515673000
     201   67  2   0.42380    -98.140255904400    -39.998697201200   -127.827012878000
     202   68  1  -0.84760     -4.265841862700    221.720573514000    179.814259099000
     203   68  2   0.42380     -3.881829356730    221.664305751000    180.735870913000
     204   68  2   0.42380     -5.096506336550    221.165996514000    179.764853799000
     205   69  1  -0.84760   -208.900306429000   -199.801079358000    100.846352278000
     206   69  2   0.42380   -207.915478600000   -199.660295141000    100.947811393000
     207   69  2   0.42380   -209.266125800000   -200.211565594000    101.681623036000
     208   70  1  -0.84760   -132.623464838000    -40.189852924500    116.739412801000
     209   70  2   0.42380   -132.151196642000    -39.668856425400    116.028409707000
     210   70  2   0.42380   -132.769008636000    -41.127687797500    116.424321142000
     211   71  1  -0.84760    -29.888897145900   -181.377978608000     55.911041162100
     212   71  2   0.42380    -29.249327280000   -181.740425817000     56.588966237200
     213   71  2   0.42380    -29.377327631800   -180.980083849000     55.149479350200
     214   72  1  -0.84760    165.000105496000   -159.625143323000     34.480878822100
     215   72  2   0.42380    165.021335767000   -159.177208470000     33.587064723200
     216   72  2   0.42380    164.731244172000   -158.962221930000     35.179626856900
     217   73  1  -0.84760    133.875860794000      9.243287959120    199.251208695000
     218   73  2   0.42380    133.417171640000      9.302636339550    198.364596023000
     219   73  2   0.42380    133.758315436000     10.104536483200    199.745611434000
     220   74  1  -0.84760    -12.680334592900    -70.288385514500     62.921475821000
     221   74  2   0.42380    -13.412995447700    -69.857993897100     63.448705493600
     222   74  2   0.42380    -12.565640115500    -69.804673867300     62.053796030300
     223   75  1  -0.84760    184.399004221000     61.033824652600   -188.467521150000
     224   75  2   0.42380    185.393343013000     61.018873480900   -188.572720149000
     225   75  2   0.42380    184.106798082000     61.949379721100   -188.191161804000
     226   76  1  -0.84760    -13.753025783400   -113.193812527000   -153.018793781000
     227   76  2   0.42380    -14.244406572100   -113.312721843000   -153.881583150000
     228   76  2   0.42380    -14.112020443600   -112.393661348000   -152.538293079000
     229   77  1  -0.84760    126.324681870000   -121.533911217000     45.362699586700
     230   77  2   0.42380    125.795708944000   -121.438676891000     46.205977753300
     231   77  2   0.42380    127.290570161000   -121.661958665000     45.587785481500
     232   78  1  -0.84760    -20.339372750300     77.126816396000   -128.688786084000
     233   78  2   0.42380    -21.240698421400     77.214948080000   -128.264704911000
     234   78  2   0.42380    -19.943488361400     76.240340266100   -128.449128783000
     235   79  1  -0.84760    127.808134883000     46.746298476500   -207.879383541000
     236   79  2   0.42380    127.995357236000     45.875134581600   -207.425487893000
     237   79  2   0.42380    128.168763119000     47.495714906300   -207.324115777000
     238   80  1  -0.84760     -5.618558054080   -173.758217145000    -75.025415278100
     239   80  2   0.42380     -5.190912315300   -172.975269677000    -74.573627291500
     240   80  2   0.42380     -5.115260388360   -174.591285900000    -74.795876809100
     241   81  1  -0.84760   -223.441387513000   -123.929273532000    204.412714672000
     242   81  2   0.42380   -224.339311667863   -123.672918753000    204.054923615000
     243   81  2   0.42380   -222.859430553000   -124.239973420000    203.661188440000
     244   82  1  -0.84760     74.465159976400    -68.298809233500    -75.524892646000
     245   82  2   0.42380     74.420615584800    -68.722098821600    -76.429791381700
     246   82  2   0.42380     73.999521703600    -67.414121962300    -75.547463226100
     247   83  1  -0.84760    175.462725405000     68.973707689800    168.986836935000
     248   83  2   0.42380    174.978490292000     68.633223953100    169.792806649000
     249   83  2   0.42380    174.818259374000     69.446270253900    168.385714520000
     250   84  1  -0.84760    184.417280741000   -216.872893574000    212.102476037000
     251   84  2   0.42380    184.996917170000   -217.637355567000    211.820306813000
     252   84  2   0.42380    184.499895378000   -216.129325604000    211.438938929000
     253   85  1  -0.84760    112.874641713000    -73.108453200200    -96.427485694300
     254   85  2   0.42380    112.873994840000    -73.938219189100    -95.869374607500
     255   85  2   0.42380    111.934038601000    -72.797144209800    -96.562957087000
     256   86  1  -0.84760   -147.324154075000     63.887976509500     32.399043260500
     257   86  2   0.42380   -147.051750529000     63.009272801600     32.007027824300
     258   86  2   0.42380   -146.948267871000     63.972122560400     33.321880735000
     259   87  1  -0.84760     87.809895219600    150.788727074000    -39.517802893000
     260   87  2   0.42380     88.702640957000    150.939794834000    -39.093322528100
     261   87  2   0.42380     87.749610636900    151.317496313000    -40.364424922400
     262   88  1  -0.84760    194.925511972000   -131.697148907000      4.227844564000
     263   88  2   0.42380    194.036752517000   -132.062335006000      4.504874786920
     264   88  2   0.42380    194.805638185000   -131.086505890000      3.445064019490
     265   89  1  -0.84760     87.268119007500    126.290205497000    -63.294408489300
     266   89  2   0.42380     87.186232713500    126.095192743000    -62.317032072200
     267   89  2   0.42380     87.631129055100    127.213375161000    -63.420826356200
     268   90  1  -0.84760     79.333192021700     96.103147501100    125.590182687000
     269   90  2   0.42380     78.686304491200     95.502717262400    126.060310384000
     270   90  2   0.42380     79.616472335500     96.836744412800    126.207910649000
     271   91  1  -0.84760    -35.499238514200    201.028094506000   -120.880856875000
     272   91  2   0.42380    -35.412614710000    200.264470347000   -120.241033102000
     273   91  2   0.42380    -36.060788849800    200.748396267000   -121.659593105000
     274   92  1  -0.84760     -4.335887427080     48.065629002300    -98.318698910800
     275   92  2   0.42380     -5.141685604620     48.029007154600    -98.909755707800
     276   92  2   0.42380     -3.729767146550     48.799010441200    -98.626546065500
     277   93  1  -0.84760   -222.238657350000    206.812325151000    212.296238977000
     278   93  2   0.42380   -222.776668236000    207.083167990000    213.094479820000
     279   93  2   0.42380   -221.840806205000    205.908455830000    212.453511727000
     280   94  1  -0.84760    128.153802325000    183.000048100000    213.292933601000
     281   94  2   0.42380    128.604833974000    183.856898762000    213.043178935000
     282   94  2   0.42380    128.496887539000    182.261344772000    212.712752655000
     283   95  1  -0.84760   -196.262854119000    201.218547731000    -35.996466837100
     284   95  2   0.42380   -196.450028631000    202.190741352000    -36.137198013400
     285   95  2   0.42380   -197.126596759000    200.718903028000    -35.930863313300
     286   96  1  -0.84760   -104.834022356000    -88.511691870900   -188.264721740000
     287   96  2   0.42380   -104.923708318000    -87.646301037400   -187.771715519000
     288   96  2   0.42380   -105.688663525000    -89.026001910900   -188.193492149000
     289   97  1  -0.84760     -8.690042964490   -193.708641927000     49.526996871800
     290   97  2   0.42380     -9.295250251860   -193.214823311000     48.902603315300
     291   97  2   0.42380     -9.055936716160   -194.624744386000     49.690942131700
     292   98  1  -0.84760    208.738457894000     57.744055386600   -192.915404008000
     293   98  2   0.42380    209.671830434000     57.887929514400   -193.244213888000
     294   98  2   0.42380    208.413229985000     58.573818924700   -192.461841136000
     295   99  1  -0.84760    -79.564140133000    -94.849920857100     72.182202447700
     296   99  2   0.42380    -78.646465834500    -94.592000198500     71.879959473000
     297   99  2   0.42380    -79.618362485200    -95.844430813800     72.271700394200
     298  100  1  -0.84760   -193.073960911000     11.670583187300    -49.865180660500
     299  100  2   0.42380   -193.122737265000     12.297509349300    -49.087630369800
     300  100  2   0.42380   -192.125027029000     11.591539854000    -50.170592904000
     301  101  1  -0.84760   -180.355520130000    -66.233844015500     78.583671240500
     302  101  2   0.42380   -180.119484653000    -67.171517710500     78.838730636300
     303  101  2   0.42380   -179.527737770000    -65.744799811000     78.308694640100
     304  102  1  -0.84760    -40.951702960300   -123.452257969000      1.116973312990
     305  102  2   0.42380    -41.229491422700   -124.312335592000      0.689071394428
     306  102  2   0.42380    -41.476184836600   -122.698415844000      0.721194572912
     307  103  1  -0.84760   -206.498131122000   -174.916501784000    -31.693158982000
     308  103  2   0.42380   -207.272005027000   -174.930170805000    -31.059966801700
     309  103  2   0.42380   -205.759099113000   -174.366283892000    -31.304453488100
     310  104  1  -0.84760   -194.190735324000   -162.254412370000    117.154521556000
     311  104  2   0.42380   -193.555394244000   -162.976623994000    117.427929824000
     312  104  2   0.42380   -193.676920338000   -161.482978160000    116.779177155000
     313  105  1  -0.84760     -6.154138147330    169.763778629000     69.032432451200
     314  105  2   0.42380     -6.287869304090    169.652145743000     70.017142599600
     315  105  2   0.42380     -5.394904143850    169.186648254000     68.731626436300
     316  106  1  -0.84760   -160.549106273000    157.415513629000   -132.941578221000
     317  106  2   0.42380   -161.483538290000    157.129851719000   -132.728895171000
     318  106  2   0.42380   -160.466572216000    158.404402047000   -132.817934273000
     319  107  1  -0.84760    191.308003049000   -202.310402228000    -91.349472439300
     320  107  2   0.42380    190.308271890000   -202.289649866000    -91.339130820100
     321  107  2   0.42380    191.620996263000   -202.938688297000    -92.061716683300
     322  108  1  -0.84760   -137.601756622000   -151.995902670000    205.481102900000
     323  108  2   0.42380   -136.684633834000   -152.356930436000    205.312150999000
     324  108  2   0.42380   -137.771383183000   -151.964531892000    206.466111887000
     325  109  1  -0.84760    172.645218504000    115.789674753000   -175.701720598000
     326  109  2   0.42380    173.452585735000    115.280815421000   -176.000418330000
     327  109  2   0.42380    172.450149434000    115.573618684000   -174.745024286000
     328  110  1  -0.84760    184.153552550000   -104.263473403000    134.826360324000
     329  110  2   0.42380    183.417686753000   -103.942978865000    134.229883351000
     330  110  2   0.42380    184.505039486000   -103.496719833000    135.363525008000
     331  111  1  -0.84760    165.719983695000    196.266569096000    104.988982397000
     332  111  2   0.42380    165.323092512000    196.585514384000    105.849651493000
     333  111  2   0.42380    165.667323019000    195.268832554000    104.947165586000
     334  112  1  -0.84760    -76.792584323200   -210.851594750000   -218.164100659000
     335  112  2   0.42380    -76.996169638100   -210.245817989000   -217.394953381000
     336  112  2   0.42380    -76.866363502900   -210.339826065000   -219.020050099000
     337  113  1  -0.84760    -30.898947351500     89.572066772400    -53.730076776000
     338  113  2   0.42380    -30.814825358000     90.100252580000    -54.575028397600
     339  113  2   0.42380    -29.988468059400     89.317960217600    -53.403798800200
     340  114  1  -0.84760    158.589016377000    189.359662585000   -135.478958006000