LAMMPS Atom File

         4500 atoms
         3000 bonds
         1500 angles
           0 dihedrals
           0 impropers

           2 atom types
           1 bond types
           1 angle types

         0.0  60.7645878796 xlo xhi
         0.0  60.7645878796 ylo yhi
         0.0  60.7645878796 zlo zhi

Masses

         1   15.9994
         2   1.00794

Atoms

       1    1  1  -0.84760    -22.985234922400      6.540762723860    -22.595929793000
       2    1  2   0.42380    -22.919240726600      7.406095633000    -23.092763490000
       3    1  2   0.42380    -23.435973607000      6.694787301820    -21.716662446000
       4    2  1  -0.84760    -28.021247966000    -19.338912513100    -14.323152542000
       5    2  2   0.42380    -28.467217006400    -18.560789168400    -14.765459760300
       6    2  2   0.42380    -28.155883396800    -19.282105581200    -13.333887019900
       7    3  1  -0.84760    -14.147398027900     20.861880507400     -7.679688341060
       8    3  2   0.42380    -14.059892103800     19.891711182100     -7.453603857900
       9    3  2   0.42380    -15.114723802300     21.115060621500     -7.693129914960
      10    4  1  -0.84760     26.538463250400    -18.772472911300      9.551305360900
      11    4  2   0.42380     26.915649104600    -17.983300549900     10.036009204000
      12    4  2   0.42380     26.805965129000    -18.731411524500      8.588623322300
      13    5  1  -0.84760      2.812372189960     16.556872450300    -14.679882577200
      14    5  2   0.42380      3.454565350980     17.322750672900    -14.647968754400
      15    5  2   0.42380      3.141551326250     15.820993535000    -14.088170385100
      16    6  1  -0.84760     -8.585623351690    -23.771515890500      7.317569560390
      17    6  2   0.42380     -7.762868057790    -24.308864082500      7.502854872680
      18    6  2   0.42380     -8.460826313820    -22.841212353800      7.662476836160
      19    7  1  -0.84760    -23.354781865700     -5.883156248410     26.545469065700
      20    7  2   0.42380    -23.425714865100     -4.903552499760     26.733471739100
      21    7  2   0.42380    -24.029388805500     -6.377472438040     27.093699839500
      22    8  1  -0.84760     27.535644311300     27.778813056000    -19.232567650100
      23    8  2   0.42380     27.298432643200     28.748731686500    -19.177900706600
      24    8  2   0.42380     28.427535485100     27.678141267600    -19.673470502200
      25    9  1  -0.84760    -20.157277805800      2.762465699200     22.484687154800
      26    9  2   0.42380    -19.951497781000      1.870948327870     22.081138696700
      27    9  2   0.42380    -20.910381007200      2.667803267160     23.135743674700
      28   10  1  -0.84760    -12.680051090400    -26.434543198000      0.184878221444
      29   10  2   0.42380    -13.267240935400    -26.119476593100      0.930492813921
      30   10  2   0.42380    -11.721430321800    -26.346779647100      0.455698791376
      31   11  1  -0.84760     -1.936606347040     13.234658016000     16.241159289800
      32   11  2   0.42380     -1.993110629360     14.034684319800     16.838457522900
      33   11  2   0.42380     -2.454278351170     13.407128712600     15.403144042400
      34   12  1  -0.84760    -20.989450452100     14.270684775400     24.426058711500
      35   12  2   0.42380    -21.053894724700     14.251672440800     25.423798891500
      36   12  2   0.42380    -21.717366123100     13.707989299300     24.034251900500
      37   13  1  -0.84760    -25.284624062900     21.214265875300     13.465638300900
      38   13  2   0.42380    -25.081196871800     22.175115675100     13.653747418500
      39   13  2   0.42380    -25.229909562000     20.689482720700     14.315114000300
      40   14  1  -0.84760     11.318545757200      3.712908509740     24.783607789500
      41   14  2   0.42380     10.983129800300      3.880128791860     25.710718092100
      42   14  2   0.42380     12.198398163000      3.239716531220     24.827756349900
      43   15  1  -0.84760    -15.903440432900    -27.000228045600     -4.210919955580
      44   15  2   0.42380    -15.600618922600    -27.951692389500     -4.156013349610
      45   15  2   0.42380    -16.509053859800    -26.798242596500     -3.441222446530
      46   16  1  -0.84760    -28.589088175200     12.586838925200     -3.156591076370
      47   16  2   0.42380    -29.010563496600     12.691190919500     -4.057406936950
      48   16  2   0.42380    -28.729580113300     11.652494753200     -2.829080796390
      49   17  1  -0.84760      2.683402098860      3.262616423050     22.808524579300
      50   17  2   0.42380      2.357167415030      4.101245508180     23.244726583700
      51   17  2   0.42380      1.948299899420      2.584743762730     22.797875035800
      52   18  1  -0.84760    -15.759507840400      8.035661083550      8.982740539000
      53   18  2   0.42380    -16.541536895700      7.413565540360      8.944955730100
      54   18  2   0.42380    -16.080932666800      8.964242724110      9.168272794390
      55   19  1  -0.84760     17.433114447700     -2.279537195950     25.701650730000
      56   19  2   0.42380     16.648775243800     -1.662173770720     25.762267678500
      57   19  2   0.42380     17.546510732700     -2.582460282140     24.755406107100
      58   20  1  -0.84760     -2.103438692710     -4.590949450990     -6.545799540710
      59   20  2   0.42380     -1.850591391370     -3.638143315640     -6.377785521520
      60   20  2   0.42380     -1.553870084600     -4.953922715900     -7.298278612800
      61   21  1  -0.84760    -12.111578280800     27.715732906900     18.541918586900
      62   21  2   0.42380    -11.770975449700     27.202727010100     19.329836514900
      63   21  2   0.42380    -13.107403945300     27.636015307200     18.497462426700
      64   22  1  -0.84760     15.374382675800     -9.612382884030    -29.613312707800
      65   22  2   0.42380     16.086074008500    -10.287503336300    -29.419127688100
      66   22  2   0.42380     15.664075401700     -9.032251381650    -30.374578472500
      67   23  1  -0.84760    -29.066509822200     15.865010196400    -21.589166717800
      68   23  2   0.42380    -29.755866946300     16.474424336600    -21.980831320600
      69   23  2   0.42380    -28.983492158300     15.046568855200    -22.157727918100
      70   24  1  -0.84760    -20.591312758700    -23.482388204500     29.547597567700
      71   24  2   0.42380    -20.232056006300    -23.224278508700     30.444433099323
      72   24  2   0.42380    -21.586612145100    -23.385545814700     29.546771126200
      73   25  1  -0.84760     22.102946525500    -14.715577528000     12.581937854700
      74   25  2   0.42380     22.590016221200    -14.466595667100     13.419058601300
      75   25  2   0.42380     21.767777283900    -13.887526288500     12.132501847900
      76   26  1  -0.84760     -8.848519426230    -10.939422136000    -20.055899948900
      77   26  2   0.42380     -8.537201275440    -11.805230027600    -20.447636727800
      78   26  2   0.42380     -8.270812055940    -10.699755342300    -19.275634595100
      79   27  1  -0.84760     15.485570597200     14.447525381900      3.706972547350
      80   27  2   0.42380     15.479257574900     13.755120035200      4.428453650070
      81   27  2   0.42380     15.044257060100     14.079945175200      2.888359602390
      82   28  1  -0.84760     11.349668340100     -0.711002223421      1.487548500110
      83   28  2   0.42380     11.639356676600     -0.973162801489      2.408066017070
      84   28  2   0.42380     10.436405269500     -0.305674990805      1.528296484810
      85   29  1  -0.84760    -11.070708968100      9.394309208960     -2.443247502770
      86   29  2   0.42380    -11.679129125900      8.632431184350     -2.665433882210
      87   29  2   0.42380    -10.647771988500      9.738506323050     -3.281491296630
      88   30  1  -0.84760      0.141816719594     22.081314659900     -3.582764446300
      89   30  2   0.42380     -0.100677077519     23.044475530000     -3.466497956430
      90   30  2   0.42380      0.451792683650     21.707757380200     -2.708481963050
      91   31  1  -0.84760     -1.177229847700    -26.921736622300    -21.944763755700
      92   31  2   0.42380     -0.478052826594    -27.107071775000    -22.635272535000
      93   31  2   0.42380     -1.439625085560    -25.957679264200    -21.986502820700
      94   32  1  -0.84760     21.112238589100      2.082761059030     12.785122184000
      95   32  2   0.42380     21.554125456800      1.337340636370     12.286038634200
      96   32  2   0.42380     21.103053530900      2.905240943530     12.216402152400
      97   33  1  -0.84760      5.420229585480    -29.469648165000      9.472229674460
      98   33  2   0.42380      4.537791711930    -29.788630404900      9.126464248260
      99   33  2   0.42380      6.037453178830    -29.299540343000      8.704051072380
     100   34  1  -0.84760    -23.020561430200    -13.747634112300    -15.048641629600
     101   34  2   0.42380    -23.931416737200    -13.533052744400    -15.401200059200
     102   34  2   0.42380    -22.820675433000    -13.161921003000    -14.263157230100
     103   35  1  -0.84760    -11.061752582000    -12.322352842400    -15.519388363700
     104   35  2   0.42380    -10.883622858300    -11.741617069600    -14.725023357100
     105   35  2   0.42380    -11.028247988400    -13.283131386800    -15.244103001000
     106   36  1  -0.84760    -21.459469218300     17.422276263200     11.824641998400
     107   36  2   0.42380    -21.464670956600     18.237570535600     12.403665479100
     108   36  2   0.42380    -20.994814511900     17.628073205500     10.963396608000
     109   37  1  -0.84760     14.326504765000    -23.864447679100    -20.356565082000
     110   37  2   0.42380     14.545683980400    -24.719201970200    -19.886080679000
     111   37  2   0.42380     15.172107231100    -23.422291427500    -20.655654230100
     112   38  1  -0.84760      0.266772975813     14.695779249200     28.225831929800
     113   38  2   0.42380      0.002539910162     15.584412124800     28.600681899100
     114   38  2   0.42380     -0.159299892236     14.572038225500     27.329645526100
     115   39  1  -0.84760     13.182455399000      6.606584229600     -4.474486394270
     116   39  2   0.42380     12.238352529000      6.535493961760     -4.152592087510
     117   39  2   0.42380     13.630087107200      7.380316724240     -4.026196442860
     118   40  1  -0.84760    -30.215942366600    -26.274863342600    -22.825790774900
     119   40  2   0.42380    -29.884474258300    -26.698481079100    -23.668807326700
     120   40  2   0.42380    -30.915417534923    -25.595281001700    -23.046929489100
     121   41  1  -0.84760      5.652913273460     22.874169030700    -28.947367549300
     122   41  2   0.42380      5.750891151800     21.968064475400    -28.535815766200
     123   41  2   0.42380      6.517600715060     23.370530338900    -28.870289147000
     124   42  1  -0.84760     11.666014888300     22.269994890500     29.457153004200
     125   42  2   0.42380     11.071633949600     23.066121397300     29.570704247800
     126   42  2   0.42380     12.583579969400     22.489047805300     29.788951350400
     127   43  1  -0.84760    -17.737507209400    -19.082120971400     24.247431181800
     128   43  2   0.42380    -17.298808097100    -19.944804426200     23.995795839500
     129   43  2   0.42380    -17.082454569500    -18.333274639500     24.146757400400
     130   44  1  -0.84760     24.355776309200    -23.249242940100    -20.615952372700
     131   44  2   0.42380     23.382131764300    -23.433029023300    -20.480900620200
     132   44  2   0.42380     24.803682608600    -24.069663819600    -20.971324751400
     133   45  1  -0.84760    -17.751877633800      2.219603147810    -14.944194533500
     134   45  2   0.42380    -18.096671381300      2.116012113720    -15.877139424400
     135   45  2   0.42380    -16.754457899400      2.288823283310    -14.963232556100
     136   46  1  -0.84760    -10.953029261400      2.273025019200    -20.916521678300
     137   46  2   0.42380    -11.226610562800      3.037105184310    -20.332283051800
     138   46  2   0.42380    -10.776534282800      1.467483556200    -20.350878262500
     139   47  1  -0.84760      6.060939846420     12.339778974500     19.927699133000
     140   47  2   0.42380      5.440034857050     12.971218740500     19.463198523600
     141   47  2   0.42380      5.875347813340     11.405492281100     19.623291557900
     142   48  1  -0.84760      1.741425728790     15.116051249600     10.523202261800
     143   48  2   0.42380      1.167022098790     15.671793574200     11.124210530000
     144   48  2   0.42380      1.513042725050     15.311641138500      9.569480185440
     145   49  1  -0.84760     14.110389759400    -20.120807285900     18.711383901600
     146   49  2   0.42380     13.444627189300    -19.395503616800     18.536184621000
     147   49  2   0.42380     13.644184360200    -21.005402989000     18.723340818300
     148   50  1  -0.84760     17.663379523800    -16.848643051200    -25.813808224200
     149   50  2   0.42380     17.324131564000    -16.406446634600    -24.983523242500
     150   50  2   0.42380     17.866679586700    -17.808576017000    -25.620940949500
     151   51  1  -0.84760     -4.441540852060      3.207017194930    -27.547109461500
     152   51  2   0.42380     -5.022366134190      3.236925920600    -26.733630844800
     153   51  2   0.42380     -4.747499453340      3.899216772740    -28.200752390600
     154   52  1  -0.84760    -20.404305272100      9.776983386730     -6.873210007650
     155   52  2   0.42380    -19.548260302700     10.122615229900     -6.488859075230
     156   52  2   0.42380    -21.070482152400     10.520929070300     -6.925680800910
     157   53  1  -0.84760     16.252767297300     23.021718400000     25.399215034300
     158   53  2   0.42380     16.657255364500     22.792832016200     24.513777048400
     159   53  2   0.42380     15.940224760300     22.185125784500     25.849137203500
     160   54  1  -0.84760     14.234398360000     -4.384970182310     -3.945384668860
     161   54  2   0.42380     14.556226202300     -4.380026776290     -4.892169968000
     162   54  2   0.42380     13.334985942400     -4.819845737780     -3.901332946170
     163   55  1  -0.84760    -19.015843582300    -10.481537175700      9.233025541610
     164   55  2   0.42380    -18.099881851100    -10.628674944300      8.859709878950
     165   55  2   0.42380    -19.135504596800     -9.512826525670      9.450467299750
     166   56  1  -0.84760     -9.062652111420     -7.273257411780      1.959864723220
     167   56  2   0.42380     -8.485276759220     -6.515040625360      1.656970339870
     168   56  2   0.42380     -8.718207297630     -8.129204243050      1.574231747090
     169   57  1  -0.84760     29.603061907900     -5.416103861500    -10.269262130500
     170   57  2   0.42380     29.886351786900     -4.458721499610    -10.325528084900
     171   57  2   0.42380     29.829200987900     -5.778018949240     -9.364895730350
     172   58  1  -0.84760    -14.024919132500     -8.271195603130     25.430901723700
     173   58  2   0.42380    -15.014829070400     -8.194005445860     25.549729306100
     174   58  2   0.42380    -13.714467908000     -7.588953670440     24.768960651900
     175   59  1  -0.84760      4.325224425950     15.527716988600     16.403876465600
     176   59  2   0.42380      3.526598197890     15.948909558000     16.833751991000
     177   59  2   0.42380      5.143671151430     16.054834205700     16.632551774600
     178   60  1  -0.84760    -12.370458292900      8.938218047600     27.087016729400
     179   60  2   0.42380    -13.348064711800      8.741989493580     27.010990126600
     180   60  2   0.42380    -11.883285122400      8.106527116740     27.353385829500
     181   61  1  -0.84760    -23.964957198900     -1.582694318850     -4.016316995740
     182   61  2   0.42380    -23.577098534100     -1.023871591770     -3.283321214140
     183   61  2   0.42380    -23.351476958200     -1.569249310670     -4.805912604950
     184   62  1  -0.84760     -0.084987026821     28.275766367900     20.323770564300
     185   62  2   0.42380     -0.937442156638     28.436543514100     19.826306032000
     186   62  2   0.42380      0.632596554135     28.012383426100     19.679020046400
     187   63  1  -0.84760    -15.744403973100     30.376710055400     -4.280314064080
     188   63  2   0.42380    -15.690476060000     29.464523718700     -3.874102460050
     189   63  2   0.42380    -15.535385783800     31.064178248123     -3.584829426920
     190   64  1  -0.84760    -17.594589321100    -29.505864209400      4.564901100210
     191   64  2   0.42380    -18.143417838100    -30.129555599400      4.008307613980
     192   64  2   0.42380    -17.037514722100    -30.033766070200      5.205984180980
     193   65  1  -0.84760    -12.498993661500     25.560357760200    -26.819356035800
     194   65  2   0.42380    -12.151291132600     25.503237011200    -25.883492706300
     195   65  2   0.42380    -11.925671015300     26.184258188200    -27.350439267900
     196   66  1  -0.84760    -16.249360427600      9.951972809400    -23.780249218000
     197   66  2   0.42380    -16.394315779000     10.176269208000    -24.743929181300
     198   66  2   0.42380    -16.493407277200      8.995493540590    -23.620285023400
     199   67  1  -0.84760    -14.216537060100     -6.975944839940    -17.746297705300
     200   67  2   0.42380    -13.412525521900     -6.882672838380    -17.159044965700
     201   67  2   0.42380    -14.480553660500     -7.938997201240    -17.799452047800
     202   68  1  -0.84760      3.443889941850    -29.646615904000     22.735976069200
     203   68  2   0.42380      3.337307903060    -29.335436125300     23.680331624200
     204   68  2   0.42380      2.964336649820    -29.019439196100     22.122235067500
     205   69  1  -0.84760    -29.252775902700    -23.927913998500     16.850208641200
     206   69  2   0.42380    -30.054177041000    -24.439105294200     16.539661262000
     207   69  2   0.42380    -29.136295134200    -24.056753949800     17.835009381200
     208   70  1  -0.84760    -18.310226215000     -5.213668412150     16.029326748000
     209   70  2   0.42380    -17.496323114400     -5.164953912670     16.608281530600
     210   70  2   0.42380    -19.129287676700     -5.165700283730     16.601023678800
     211   71  1  -0.84760     -4.108266686520    -25.473759078000      6.669271376280
     212   71  2   0.42380     -3.126514054000    -25.283799067500      6.660498521220
     213   71  2   0.42380     -4.447491730310    -25.431822365600      7.609041391670
     214   72  1  -0.84760     21.310554702800    -24.102036269000      3.814950155670
     215   72  2   0.42380     21.166513259300    -25.080043128100      3.965796587630
     216   72  2   0.42380     21.614938079400    -23.951121655200      2.874431394880
     217   73  1  -0.84760     18.888075568300      2.765010923700     26.539661750900
     218   73  2   0.42380     17.962283796500      2.592631038640     26.203217445700
     219   73  2   0.42380     19.548661435000      2.560955870810     25.817174485900
     220   74  1  -0.84760     -2.149310977550     -9.166386351650     10.428956281400
     221   74  2   0.42380     -2.686941693940     -8.587703999560     11.042209857100
     222   74  2   0.42380     -1.279353443050     -9.396390838930     10.865157867800
     223   75  1  -0.84760     26.095808685300      8.254599080840    -25.129606143700
     224   75  2   0.42380     25.636886622600      9.000217084220    -24.646445369900
     225   75  2   0.42380     25.728481076300      7.378721109060    -24.816703273400
     226   76  1  -0.84760     -0.562326473219    -16.104325889300    -21.646045960800
     227   76  2   0.42380      0.061166009838    -16.724297011200    -21.169713165800
     228   76  2   0.42380     -1.143384240450    -15.638376042200    -20.978765951200
     229   77  1  -0.84760     17.757840543600    -16.292274239300      4.878533990970
     230   77  2   0.42380     17.885834721900    -15.872440520500      5.777064535170
     231   77  2   0.42380     18.559775126700    -16.844885872300      4.651550935180
     232   78  1  -0.84760     -2.866639844720     10.020574074200    -16.962791823700
     233   78  2   0.42380     -3.817612427100      9.886685958210    -17.241584076000
     234   78  2   0.42380     -2.529124069600     10.885631818300    -17.333949742800
     235   79  1  -0.84760     17.453196667200      6.840178680200    -26.747898780900
     236   79  2   0.42380     18.326885174900      6.780570047850    -26.265078729000
     237   79  2   0.42380     16.720924288300      7.019754225370    -26.090989512600
     238   80  1  -0.84760     -1.915249262280    -25.722312027600     -9.889721612110
     239   80  2   0.42380     -1.416925476380    -26.372684160400    -10.463036092400
     240   80  2   0.42380     -1.321177366970    -25.406979098300     -9.149692067490
     241   81  1  -0.84760    -28.209189006200    -16.652958149200     25.633742234700
     242   81  2   0.42380    -28.908468432400    -16.126488964600     26.117310721800
     243   81  2   0.42380    -27.302771271100    -16.315725848000     25.888067350300
     244   82  1  -0.84760      9.700554079580     -6.941992786990    -10.734108201000
     245   82  2   0.42380      9.468848256310     -6.374089894600     -9.944298909900
     246   82  2   0.42380      9.368337864480     -7.873179463880    -10.584029024500
     247   83  1  -0.84760     24.087100775500      8.365422198060     22.109217719000
     248   83  2   0.42380     24.450794194900      8.990337320630     22.800020285800
     249   83  2   0.42380     24.549305699300      7.481707382270     22.182802587000
     250   84  1  -0.84760     25.141212396200    -29.364018478400     29.506217643800
     251   84  2   0.42380     25.720848825700    -30.128480471100     29.224048419300
     252   84  2   0.42380     25.223827033900    -28.620450507800     28.842680535100
     253   85  1  -0.84760     13.667778196100     -9.173171113550    -12.836106919500
     254   85  2   0.42380     14.524702611100     -9.545585255360    -12.479752806400
     255   85  2   0.42380     13.782287218100     -8.198500353080    -13.028212600200
     256   86  1  -0.84760    -20.582979831400      8.219376356300      2.826172246020
     257   86  2   0.42380    -20.995371424500      7.577712723110      3.472856833530
     258   86  2   0.42380    -19.901997936900      8.778170420460      3.299472207290
     259   87  1  -0.84760     13.503284761500     21.361076784900     -3.617502304270
     260   87  2   0.42380     13.941080865600     21.273719851200     -2.722682022110
     261   87  2   0.42380     12.509909918700     21.329205436600     -3.507091077320
     262   88  1  -0.84760     25.922135659500    -18.742550821600     -1.161492929190
     263   88  2   0.42380     25.814337342700    -18.585517836600     -0.179800429213
     264   88  2   0.42380     25.938662909100    -17.864443249300     -1.639670659120
     265   89  1  -0.84760     14.010219351700     17.339542408200     -7.295507935110
     266   89  2   0.42380     13.301081333500     17.376240573400     -6.591393941600
     267   89  2   0.42380     13.624412539800     17.626293795800     -8.172392617150
     268   90  1  -0.84760     11.043470479400     11.492580821400     16.653962355900
     269   90  2   0.42380     11.532104148500     11.063752852000     15.894130986300
     270   90  2   0.42380     11.396274865900     12.417172180600     16.797697819700
     271   91  1  -0.84760     -8.127599506250     29.556604036500    -15.056192340800
     272   91  2   0.42380     -7.926911013590     28.813440440200    -14.417888339600
     273   91  2   0.42380     -7.558191417360     29.457918615200    -15.872302392200
     274   92  1  -0.84760     -0.704209192019      6.087397069530    -13.967833867200
     275   92  2   0.42380     -0.898614510560      5.690725898310    -13.070694773100
     276   92  2   0.42380     -0.305267926570      5.388793652150    -14.561802832700
     277   93  1  -0.84760    -28.837587515100     27.939409395600    -29.913600923500
     278   93  2   0.42380    -28.180798774200     28.048998100700    -29.167531981900
     279   93  2   0.42380    -28.972784282300     28.818601485100    -30.370485048600
     280   94  1  -0.84760     17.338753341500     24.736701433400     28.704570374400
     281   94  2   0.42380     17.148887198900     23.882654891100     28.220261225700
     282   94  2   0.42380     18.312693258100     24.784760958200     28.926226235800
     283   95  1  -0.84760    -27.365319262200     24.485129050200     -3.197699081990
     284   95  2   0.42380    -28.344674405000     24.467323860200     -3.399060645980
     285   95  2   0.42380    -26.915033154300     23.724400519200     -3.665175844140
     286   96  1  -0.84760    -13.804264210400    -12.341932342400    -25.571635926100
     287   96  2   0.42380    -13.489998033900    -12.830956723900    -26.385326238600
     288   96  2   0.42380    -14.803310392800    -12.298333717300    -25.574061870000
     289   97  1  -0.84760     -1.738491988210    -25.471136239500      6.016567761040
     290   97  2   0.42380     -1.438373718440    -26.037514818700      5.249010382580
     291   97  2   0.42380     -1.009403955760    -25.421373155200      6.699176196660
     292   98  1  -0.84760    -12.418210115500    -12.001046178300     11.236308976300
     293   98  2   0.42380    -12.569126286700    -12.978848526200     11.381659854200
     294   98  2   0.42380    -11.439531431500    -11.803079472500     11.291055821100
     295   99  1  -0.84760    -26.388517162500      1.430619144330     -6.276984178970
     296   99  2   0.42380    -27.011069166900      0.661117300282     -6.419447906880
     297   99  2   0.42380    -25.454167710900      1.089047239050     -6.175398077850
     298  100  1  -0.84760    -24.514098742100     -9.076582255940     10.701509606400
     299  100  2   0.42380    -25.161752211600     -8.802593221910      9.990541961040
     300  100  2   0.42380    -24.009606967600     -9.885307016700     10.399098775200
     301  101  1  -0.84760     -5.129654522580    -17.112832835900     -0.042805039643
     302  101  2   0.42380     -5.195546594010    -16.297949588500      0.533062591002
     303  101  2   0.42380     -5.051465423820    -17.924559138100      0.535975467319
     304  102  1  -0.84760    -28.619476615700    -22.348882780100     -5.353600723140
     305  102  2   0.42380    -29.136441147100    -21.839657406800     -6.041668446900
     306  102  2   0.42380    -29.110717205800    -23.188385359700     -5.121398006680
     307  103  1  -0.84760    -27.785426907700    -21.686957324800     15.499846274600
     308  103  2   0.42380    -27.616274960700    -21.472185312200     16.461750948400
     309  103  2   0.42380    -28.340449446200    -22.516347901700     15.436118316100
     310  104  1  -0.84760      1.929032920540     26.615609025800     12.159010405300
     311  104  2   0.42380      2.690963179240     26.758272577100     12.790761457500
     312  104  2   0.42380      1.685660228520     25.645793314400     12.143936626100
     313  105  1  -0.84760    -21.145790019400     21.506012412200    -17.696271314600
     314  105  2   0.42380    -20.672655641200     22.004197095100    -16.969665588000
     315  105  2   0.42380    -22.129536991400     21.672252979600    -17.628404026600
     316  106  1  -0.84760     26.390220955400    -27.458933759300    -12.072836024200
     317  106  2   0.42380     25.455788938800    -27.744595669200    -11.860152974400
     318  106  2   0.42380     26.472755012500    -26.470045341200    -11.949192075700
     319  107  1  -0.84760    -19.009661204300    -21.024705090000     27.557287776900
     320  107  2   0.42380    -18.597533113000    -21.562584225500     28.292703626600
     321  107  2   0.42380    -18.568774598800    -20.128253267500     27.512643278900
     322  108  1  -0.84760     25.296126723900     15.265114554700    -24.493992586300
     323  108  2   0.42380     24.379751571200     15.315187944700    -24.891169165600
     324  108  2   0.42380     25.618606649200     16.187761147200    -24.282497992500
     325  109  1  -0.84760     24.658535684500    -16.384746139800     19.326737936700
     326  109  2   0.42380     23.767773694300    -16.312154460100     19.775373116800
     327  109  2   0.42380     24.526981127500    -16.533140859700     18.346598964000
     328  110  1  -0.84760     24.566190858100     23.689025442200     13.554001760600
     329  110  2   0.42380     23.711887282700     23.231665592600     13.800957969400
     330  110  2   0.42380     24.369704919500     24.622035149100     13.252528440500
     331  111  1  -0.84760    -12.139370054300    -26.166362786200     29.767549671000
     332  111  2   0.42380    -12.188973561900    -25.982694803500     30.749285666123
     333  111  2   0.42380    -11.335133216400    -26.728196303100     29.573781232400
     334  112  1  -0.84760     -5.440169426990     12.934216499100     -8.300199197410
     335  112  2   0.42380     -4.617169481410     13.327184122900     -7.890019314640
     336  112  2   0.42380     -6.185361038120     12.950848598800     -7.633556237530
     337  113  1  -0.84760     21.349433929200     25.644447116800    -18.642017240900
     338  113  2   0.42380     21.433555922600     26.172632924400    -19.486968862500
     339  113  2   0.42380     22.259913221300     25.390340561900    -18.315739265200
     340  114  1  -0.84760     17.855855884700    -29.889593979400    -24.234992965300