LAMMPS Atom File

         4500 atoms
         3000 bonds
         1500 angles
           0 dihedrals
           0 impropers

           2 atom types
           1 bond types
           1 angle types

         0.0  44.7717311501 xlo xhi
         0.0  44.7717311501 ylo yhi
         0.0  44.7717311501 zlo zhi

Masses

         1   15.9994
         2   1.00794

Atoms

       1    1  1  -0.84760    -15.885574888000      5.591309654170    -16.973316876000
       2    1  2   0.42380    -15.603779891500      4.632309054740    -16.943160114700
       3    1  2   0.42380    -16.821740296100      5.652903565250    -17.319438991400
       4    2  1  -0.84760    -20.039174439400    -14.291168947600    -11.341677074600
       5    2  2   0.42380    -20.369205897300    -13.625267244100    -12.010746695900
       6    2  2   0.42380    -20.140463057800    -13.916088039600    -10.420235308500
       7    3  1  -0.84760    -10.449075750500     17.559554830100     -7.730223590920
       8    3  2   0.42380    -10.958089458600     17.545519121000     -6.869579620490
       9    3  2   0.42380    -10.126059027100     16.637048052200     -7.941508803460
      10    4  1  -0.84760     20.408807356400    -14.182271322500      6.793003453710
      11    4  2   0.42380     19.870544823500    -15.024648570800      6.818965294750
      12    4  2   0.42380     20.191133960800    -13.673164935800      5.960279622040
      13    5  1  -0.84760     -1.068488805110     12.310122759900    -10.466179336400
      14    5  2   0.42380     -0.585275417062     13.185202828700    -10.493376665200
      15    5  2   0.42380     -0.479354920242     11.592376705900    -10.837342195000
      16    6  1  -0.84760     -6.384553504240    -15.270941190200      6.802370797720
      17    6  2   0.42380     -6.330700711610    -14.633839566200      7.571267017900
      18    6  2   0.42380     -7.295884951980    -15.223548310600      6.393434485660
      19    7  1  -0.84760    -16.531447875600     -4.574979054060     22.281767952100
      20    7  2   0.42380    -15.607344752100     -4.217169627200     22.415953760386
      21    7  2   0.42380    -16.609305519700     -5.470077662220     22.720785797886
      22    8  1  -0.84760     19.568520463300     20.686552294400    -17.446442674100
      23    8  2   0.42380     18.621878253300     20.995203999000    -17.539193154300
      24    8  2   0.42380     19.612018311800     19.697560205000    -17.587873166800
      25    9  1  -0.84760     -8.269655258220    -17.826808930100     -0.205257508140
      26    9  2   0.42380     -7.670989534290    -18.627150429500     -0.237704930401
      27    9  2   0.42380     -8.060661532470    -17.222833777200     -0.974371048089
      28   10  1  -0.84760     -2.458841425430      9.549387263830     12.205071309100
      29   10  2   0.42380     -3.428186551300      9.572062619710     12.449725872100
      30   10  2   0.42380     -2.263195487540     10.279363992500     11.550199838800
      31   11  1  -0.84760    -15.882663932800      8.754510467780     17.899323490600
      32   11  2   0.42380    -14.928551664200      8.509611826580     17.727002759400
      33   11  2   0.42380    -16.006293243600      8.949211414940     18.872363744000
      34   12  1  -0.84760    -17.789866602300     15.380614357200     10.268125859100
      35   12  2   0.42380    -17.520028234700     15.973175366800     11.027111172000
      36   12  2   0.42380    -17.744293287500     14.424911845400     10.558910628000
      37   13  1  -0.84760      6.373705962840      0.823489319806     16.423752494900
      38   13  2   0.42380      6.053177810350      0.747988020134     15.479527279600
      39   13  2   0.42380      6.755885596640     -0.052805537008     16.717088567400
      40   14  1  -0.84760    -11.622724334900    -17.736946714100     -2.550199793180
      41   14  2   0.42380    -10.938498069000    -18.356591026700     -2.165654161310
      42   14  2   0.42380    -11.971248706500    -17.136984049800     -1.830077884210
      43   15  1  -0.84760    -19.868369461800     10.663086220900     -4.234525403310
      44   15  2   0.42380    -19.599557013100     10.780900029100     -3.278565271290
      45   15  2   0.42380    -19.271279473400      9.988053894760     -4.667901573020
      46   16  1  -0.84760      1.977147571140      2.403916334100     16.805464597600
      47   16  2   0.42380      1.704926403610      1.550228185560     17.249437773500
      48   16  2   0.42380      1.544545945270      3.175151628140     17.272424932600
      49   17  1  -0.84760    -11.320341152200      6.582230358590      7.168446727550
      50   17  2   0.42380    -11.179747529400      5.763245773400      6.612121568610
      51   17  2   0.42380    -10.481454343300      6.792063284900      7.670680801450
      52   18  1  -0.84760     11.741785235000     -0.433211282800     15.976260787500
      53   18  2   0.42380     12.223114152200     -1.116739299940     15.427524126500
      54   18  2   0.42380     11.523147873900      0.358455742515     15.405768872300
      55   19  1  -0.84760     -1.948664065270     -2.235863837800     -4.309175146110
      56   19  2   0.42380     -2.883284959480     -2.421691301120     -4.005939366610
      57   19  2   0.42380     -1.835260435610     -2.550436202390     -5.251610207110
      58   20  1  -0.84760    -10.016076436900     20.691803470100     14.253709657000
      59   20  2   0.42380    -10.409491996100     19.939567637900     13.725159327700
      60   20  2   0.42380     -9.020660713650     20.598755463400     14.275836706000
      61   21  1  -0.84760     11.989907533000     -9.296505987560     21.832397732400
      62   21  2   0.42380     12.679481539800     -8.594294577930     22.009561005300
      63   21  2   0.42380     12.411488462700    -10.201095023600     21.895549894300
      64   22  1  -0.84760     21.505565114600     10.185061535900    -17.790576522700
      65   22  2   0.42380     22.485217476486     10.171424955400    -17.990814615100
      66   22  2   0.42380     21.230167194000      9.300921663660    -17.413147494100
      67   23  1  -0.84760    -15.258904519000    -16.807856398100    -21.386788549700
      68   23  2   0.42380    -14.953420564400    -17.053542079800    -20.466833062100
      69   23  2   0.42380    -14.970103105000    -15.873486857300    -21.595468459300
      70   24  1  -0.84760     15.952189536400    -10.603879457300      9.604711883370
      71   24  2   0.42380     16.587245420000    -10.589603203400      8.832377620750
      72   24  2   0.42380     16.459977554200    -10.473200347200     10.456224830500
      73   25  1  -0.84760     -7.968549721800     -6.047962999940    -15.078874028900
      74   25  2   0.42380     -7.514346029120     -6.390970461830    -15.901093517000
      75   25  2   0.42380     -8.655923725820     -6.708799002510    -14.777522479500
      76   26  1  -0.84760     11.426732314700      8.386282354210      4.641646363310
      77   26  2   0.42380     11.735301138500      7.511987801510      5.016338658490
      78   26  2   0.42380     11.562358895500      8.390785491290      3.650896570310
      79   27  1  -0.84760     10.391701828900     -0.485740287538      0.333806780398
      80   27  2   0.42380      9.940842031020      0.366334464581      0.067923235526
      81   27  2   0.42380     10.591709594900     -1.026121651070     -0.483496636638
      82   28  1  -0.84760    -10.154530857500     11.000073491200     -0.545759207047
      83   28  2   0.42380    -10.997260099000     11.512673169300     -0.710224995459
      84   28  2   0.42380     -9.374724340800     11.625810261900     -0.564608352416
      85   29  1  -0.84760     -2.745483245430    -18.948844314800    -17.149013366600
      86   29  2   0.42380     -3.149911638660    -18.758625148900    -18.043582728700
      87   29  2   0.42380     -2.090401714330    -18.228987023600    -16.919505920100
      88   30  1  -0.84760     13.910532766100      2.258309735550      9.681485273860
      89   30  2   0.42380     14.143088290300      2.070041595030      8.727298166730
      90   30  2   0.42380     12.936898075500      2.475695636290      9.750614569240
      91   31  1  -0.84760      6.716295524800     22.323821858300      5.983021563210
      92   31  2   0.42380      7.054661749480     23.247414918086      5.802787942940
      93   31  2   0.42380      5.932355708820     22.134740336500      5.391678563740
      94   32  1  -0.84760    -17.257150899900    -11.397280630900    -11.198228673900
      95   32  2   0.42380    -17.042758014800    -11.399628514900    -10.221483989600
      96   32  2   0.42380    -17.077520816800    -12.303456418400    -11.581084358700
      97   33  1  -0.84760     -5.963591607280     -9.771896493840    -12.834843423600
      98   33  2   0.42380     -5.835951494190    -10.127773776600    -11.909068418000
      99   33  2   0.42380     -5.384706993820    -10.282177996200    -13.470850807700
     100   34  1  -0.84760    -15.514209112000     12.561558504000     11.929575528200
     101   34  2   0.42380    -14.977629633700     11.719184195900     11.879695788000
     102   34  2   0.42380    -15.482862828800     13.029505846900     11.046375270700
     103   35  1  -0.84760     12.250843759200    -17.733806174900    -16.405932915900
     104   35  2   0.42380     11.644359953300    -17.512724880800    -15.642191824600
     105   35  2   0.42380     13.032735426800    -17.110404801200    -16.401914532700
     106   36  1  -0.84760     -1.158549762520      8.428599253390     21.334878713800
     107   36  2   0.42380     -2.152033875840      8.348309299000     21.253990891400
     108   36  2   0.42380     -0.740631183748      8.317097570010     20.433262700200
     109   37  1  -0.84760     11.361223621700      3.997407010720     -0.924127420058
     110   37  2   0.42380     12.156494312700      4.151910593520     -0.337890973791
     111   37  2   0.42380     11.576136587700      3.290419594120     -1.597908697500
     112   38  1  -0.84760    -20.312390912400    -21.888890434000    -13.925587596900
     113   38  2   0.42380    -19.894315268600    -21.015036276100    -13.677410912100
     114   38  2   0.42380    -21.194685117200    -21.979391072900    -13.463671402600
     115   39  1  -0.84760      7.044967633630     17.390497994700    -21.718840227600
     116   39  2   0.42380      6.610827998680     17.322124848800    -20.820593106700
     117   39  2   0.42380      6.376632856890     17.171152729600    -22.429625906186
     118   40  1  -0.84760      9.452972836470     18.316289501800     20.127163445500
     119   40  2   0.42380      8.465962111940     18.160153022300     20.089331852400
     120   40  2   0.42380      9.924188421180     17.442736526600     20.249069443300
     121   41  1  -0.84760    -13.754240830900    -12.273147728500     16.242462066200
     122   41  2   0.42380    -14.753492352800    -12.287010916100     16.278575887700
     123   41  2   0.42380    -13.457352104900    -12.045584267000     15.315061421700
     124   42  1  -0.84760     18.880670123200    -18.646984401200    -15.211860385000
     125   42  2   0.42380     18.930759548800    -17.708554751700    -14.870040487400
     126   42  2   0.42380     19.351249509500    -18.706622985500    -16.092200251400
     127   43  1  -0.84760    -13.079695272600      1.635417582200    -11.010976676700
     128   43  2   0.42380    -12.540843778200      0.793061921145    -11.002258463600
     129   43  2   0.42380    -13.386861512400      1.824964306970    -11.943564978200
     130   44  1  -0.84760     -7.442419611840      0.732551433853    -14.376076427100
     131   44  2   0.42380     -7.106556421820     -0.143823140645    -14.721277126400
     132   44  2   0.42380     -7.731936320690      0.627192647572    -13.424719711000
     133   45  1  -0.84760      6.299265016500     10.397717661000     15.379521356900
     134   45  2   0.42380      6.498365999100     10.751788939700     16.293300503300
     135   45  2   0.42380      7.130926291840     10.420537389300     14.824707169000
     136   46  1  -0.84760     -1.527345352030     13.543639402100      5.003018757570
     137   46  2   0.42380     -0.730754876119     13.764875984100      4.440437218180
     138   46  2   0.42380     -1.644640834900     12.551198916700      5.039124887570
     139   47  1  -0.84760     10.304652841800    -12.945034465500     11.554159671200
     140   47  2   0.42380      9.720103347980    -13.748992714700     11.444829790800
     141   47  2   0.42380     10.940838932600    -13.095903607300     12.310800774900
     142   48  1  -0.84760     14.037477217600    -12.895383738600    -20.941763679200
     143   48  2   0.42380     13.238423112800    -13.493824300000    -20.883613596800
     144   48  2   0.42380     14.349423286000    -12.665358899800    -20.019929516200
     145   49  1  -0.84760     -5.320260333510      2.230553303130    -20.790334201500
     146   49  2   0.42380     -4.723672121640      1.444966868690    -20.626210895800
     147   49  2   0.42380     -4.766534394110      3.060008845450    -20.863758225900
     148   50  1  -0.84760    -12.899802651200      7.221005652620     -7.026045608530
     149   50  2   0.42380    -12.569547578300      6.587894487100     -7.726118346830
     150   50  2   0.42380    -13.320935614600      8.014197910970     -7.465924078660
     151   51  1  -0.84760     10.970725667600     16.122645314600     20.000268844600
     152   51  2   0.42380     10.051656599300     16.099511737400     19.606851908900
     153   51  2   0.42380     11.599787268100     15.619742848600     19.407503619200
     154   52  1  -0.84760     11.067868969500     -0.849728274752     -5.035436043880
     155   52  2   0.42380     11.816384236300     -0.331783798555     -5.449511417410
     156   52  2   0.42380     11.219726266900     -1.827624466580     -5.179166344220
     157   53  1  -0.84760    -12.420482770100     -9.430959643230      4.341962245780
     158   53  2   0.42380    -12.247297517100     -9.794004987870      3.426426912830
     159   53  2   0.42380    -12.247669430800     -8.446024492350      4.348150808870
     160   54  1  -0.84760     -5.463419700990     -4.526856073740      1.055827905610
     161   54  2   0.42380     -6.061067091040     -3.828945793220      0.661190302867
     162   54  2   0.42380     -6.017317264980     -5.288119997830      1.392984733340
     163   55  1  -0.84760     20.555393767800     -4.348194611530     -6.152010731630
     164   55  2   0.42380     21.520880594600     -4.446292250430     -6.393282446980
     165   55  2   0.42380     19.989669911800     -4.756944722270     -6.868167045340
     166   56  1  -0.84760     -9.625518726710     -8.740001030600     20.773778176400
     167   56  2   0.42380     -9.280349602240     -7.810982244160     20.907128729300
     168   56  2   0.42380     -9.546498246730     -8.989608154510     19.808660542400
     169   57  1  -0.84760      6.189732262240      8.880441666430     10.354834682600
     170   57  2   0.42380      5.849386107510      9.497776281030      9.645565714830
     171   57  2   0.42380      6.757239449780      9.393381649940     10.998906235600
     172   58  1  -0.84760     -9.029652689540      5.919625240360     20.527127990200
     173   58  2   0.42380     -9.593810730960      6.745013902580     20.505697624200
     174   58  2   0.42380     -9.501376474530      5.206850419150     21.046193231700
     175   59  1  -0.84760     -0.949080321958     21.031622069700     13.956291452500
     176   59  2   0.42380     -1.012022905550     20.132981159800     14.390437449000
     177   59  2   0.42380     -0.145192735147     21.059185936600     13.362149229600
     178   60  1  -0.84760     -6.766306966240    -19.647790576700     -6.769401714630
     179   60  2   0.42380     -5.970301605070    -20.240266260800     -6.645514553190
     180   60  2   0.42380     -6.830314734620    -19.371739083000     -7.728410879570
     181   61  1  -0.84760    -13.747002486600    -19.522745241300      5.384990683940
     182   61  2   0.42380    -13.527333224600    -18.676876352100      5.871047509610
     183   61  2   0.42380    -12.922981029200    -20.083224379800      5.302215245950
     184   62  1  -0.84760    -12.356040318000     16.312494735100    -16.559427123700
     185   62  2   0.42380    -11.682934645200     17.048365916600    -16.633063782000
     186   62  2   0.42380    -12.774943937100     16.333557539100    -15.651640741200
     187   63  1  -0.84760    -13.064528590300     10.496524152400    -15.951617727300
     188   63  2   0.42380    -12.573277405200      9.653089305680    -15.734155242200
     189   63  2   0.42380    -12.587839154600     10.980072559500    -16.685748587500
     190   64  1  -0.84760    -10.725622360000     -5.556512321440    -13.275317313800
     191   64  2   0.42380    -10.786418587700     -5.578341468710    -12.277405841300
     192   64  2   0.42380    -10.190898796100     -4.760647410040    -13.559341525800
     193   65  1  -0.84760     -0.564139690810    -22.360948034400     17.843863775100
     194   65  2   0.42380     -1.478189424600    -22.050814141200     18.105263951900
     195   65  2   0.42380     -0.218262032635    -21.789222848200     17.099888670000
     196   66  1  -0.84760    -18.433473571100    -21.118019074500      8.875509195220
     197   66  2   0.42380    -17.639030998100    -21.694592703700      8.684658865320
     198   66  2   0.42380    -19.268821281100    -21.659459563800      8.780449214880
     199   67  1  -0.84760    -13.671191960100     -4.244676738270     13.794361206100
     200   67  2   0.42380    -12.941662721900     -4.888848570790     13.564513994300
     201   67  2   0.42380    -14.375241526700     -4.714574874780     14.326817729300
     202   68  1  -0.84760     -3.045533634800    -17.809341994000      5.173101999750
     203   68  2   0.42380     -2.661521128830    -17.865609756600      6.094713812900
     204   68  2   0.42380     -3.876198108660    -18.363918993300      5.123696699520
     205   69  1  -0.84760     17.965617245500    -17.808688652500      4.648360034330
     206   69  2   0.42380     18.701273066700    -18.482122003000      4.721147637690
     207   69  2   0.42380     18.153020233800    -17.042576358500      5.263138102480
     208   70  1  -0.84760     14.723275022300      0.354664535809     20.486368891400
     209   70  2   0.42380     13.942547795600     -0.118025969562     20.077677463200
     210   70  2   0.42380     15.541084411200     -0.213880561602     20.397238225400
     211   71  1  -0.84760      0.108810833232     -4.919010860910      5.370200358520
     212   71  2   0.42380      0.626128301840     -4.100474848320      5.619963111500
     213   71  2   0.42380      0.729261163794     -5.599266083400      4.979951438500
     214   72  1  -0.84760     19.635388073500      6.517895969410    -17.910738943400
     215   72  2   0.42380     18.801451046800      6.085569206980    -18.253729622400
     216   72  2   0.42380     20.340857923300      6.489901648200    -18.618925789600
     217   73  1  -0.84760     -1.221699150270    -13.886515843900    -16.518752846800
     218   73  2   0.42380     -0.324209718137    -13.488268925800    -16.708257758200
     219   73  2   0.42380     -1.224182994570    -14.280514050300    -15.599644994600
     220   74  1  -0.84760     16.904391450700    -12.695004015700      2.545292322860
     221   74  2   0.42380     15.986952733700    -12.320341740600      2.411373017990
     222   74  2   0.42380     17.584243724200    -11.983773830000      2.366539674350
     223   75  1  -0.84760     -0.959957425525      8.742536982060    -16.262677886100
     224   75  2   0.42380     -1.215741526690      7.778661035660    -16.188396976400
     225   75  2   0.42380     -0.385067068787      8.873539921430    -17.070353134900
     226   76  1  -0.84760     12.834574749600      5.289868281400    -20.761429643100
     227   76  2   0.42380     13.030112338300      6.061411563510    -21.366810527600
     228   76  2   0.42380     13.690755675400      4.937005167840    -20.384014957000
     229   77  1  -0.84760     -2.643440142550    -13.653623184700     -8.103960481250
     230   77  2   0.42380     -3.121108890630    -14.031052213100     -8.897295149350
     231   77  2   0.42380     -1.707605235990    -14.005246594100     -8.080002066380
     232   78  1  -0.84760    -20.837815421000    -14.055957023400    -22.243654241000
     233   78  2   0.42380    -20.484691878600    -14.945739750800    -22.532774392286
     234   78  2   0.42380    -20.329181354700    -13.739702762400    -21.442857994200
     235   79  1  -0.84760      7.255795825690     -7.743256295810     -7.049779266260
     236   79  2   0.42380      7.728720777040     -8.621616026660     -6.980308599010
     237   79  2   0.42380      7.417941257170     -7.210775406860     -6.219012775620
     238   80  1  -0.84760     17.386437118300      6.497235968790     16.878813847000
     239   80  2   0.42380     17.105253528100      7.230976907520     16.260299479000
     240   80  2   0.42380     17.936447562800      6.879621964100     17.621289073200
     241   81  1  -0.84760     18.258236088100     20.641678953900     21.498501094900
     242   81  2   0.42380     18.507517468500     19.856993525500     20.930938259700
     243   81  2   0.42380     18.791756003900     20.624313355700     22.344110304500
     244   82  1  -0.84760     13.049734372700     -5.269294495540     -9.312879822020
     245   82  2   0.42380     13.870452434500     -4.754219442170     -9.560103511110
     246   82  2   0.42380     12.641924005200     -5.662205376710    -10.137083524700
     247   83  1  -0.84760    -18.940285928700      6.256512108520      0.826394346979
     248   83  2   0.42380    -18.362486796900      5.547814022280      0.421554643099
     249   83  2   0.42380    -19.901858111500      6.037264944510      0.661138126680
     250   84  1  -0.84760      8.741863949010     15.364926989300     -4.252253877420
     251   84  2   0.42380      7.769596496160     15.310197361400     -4.479631686270
     252   84  2   0.42380      8.915541736950     16.199817315600     -3.729956865170
     253   85  1  -0.84760     19.961041071500    -12.981952738000      0.692945580237
     254   85  2   0.42380     19.027253230000    -13.233403413100      0.438361949562
     255   85  2   0.42380     20.342063637200    -12.369820594000      0.000041515632
     256   86  1  -0.84760     10.067283125200     10.767277347000     -4.794607374820
     257   86  2   0.42380      9.809103789490     11.718860717300     -4.627776562730
     258   86  2   0.42380     11.047410593500     10.716550391900     -4.986380474860
     259   87  1  -0.84760      8.227823962770     10.749479271800     12.575708333000
     260   87  2   0.42380      7.300412924830     11.119541980300     12.521280780200
     261   87  2   0.42380      8.850755338790     11.458515749500     12.906198535500
     262   88  1  -0.84760     -2.788564375070     21.178831400700     -9.886904643070
     263   88  2   0.42380     -2.458319937900     22.095005477900    -10.113981000500
     264   88  2   0.42380     -3.497802415280     20.909227411400    -10.538284018900
     265   89  1  -0.84760      0.642965492599      4.244628202990     -8.782248560590
     266   89  2   0.42380     -0.324243344531      4.085335835600     -8.584427916910
     267   89  2   0.42380      1.170688614230      4.185073415840     -7.934922452040
     268   90  1  -0.84760    -22.053757587500     19.919687055200     22.084539554900
     269   90  2   0.42380    -22.835231764386     19.548342726300     22.585939096386
     270   90  2   0.42380    -22.120586812200     20.916991125600     22.054233683200
     271   91  1  -0.84760     12.775302691400     18.226157450600     21.149708282800
     272   91  2   0.42380     12.497514740500     17.534985678900     20.482538562100
     273   91  2   0.42380     12.301072350800     18.063754740200     22.015000686400
     274   92  1  -0.84760    -18.730121398600     21.377288208400     -4.499373125990
     275   92  2   0.42380    -18.770465813700     20.425012147100     -4.801933254460
     276   92  2   0.42380    -18.691271878600     21.979104117700     -5.297062492900
     277   93  1  -0.84760    -10.171068833300     -9.093613500690    -18.841342444700
     278   93  2   0.42380    -10.506077131300     -8.212024706830    -18.508820808100
     279   93  2   0.42380    -10.499145756100     -9.822856655740    -18.240867671300
     280   94  1  -0.84760     -0.600652981669    -20.301480349300      4.199858158300
     281   94  2   0.42380     -0.324793835393    -19.880272249000      5.063852063210
     282   94  2   0.42380     -0.360640172121    -19.695057094500      3.441804936340
     283   95  1  -0.84760     -7.813260198530     -9.184602905500      6.851757115100
     284   95  2   0.42380     -7.785401008020     -8.738785958290      7.746447628680
     285   95  2   0.42380     -8.508068954580     -9.903758976920      6.859196029640
     286   96  1  -0.84760    -18.794441442400      2.330884414480     -5.717981472740
     287   96  2   0.42380    -18.913271508100      2.920413353380     -6.516940198630
     288   96  2   0.42380    -19.195266973900      2.772528469760     -4.915305061160
     289   97  1  -0.84760    -17.803336806800     -1.654891169640      8.462588145690
     290   97  2   0.42380    -17.334107217600     -2.320435064710      7.882178879450
     291   97  2   0.42380    -18.639616010600     -2.063008257390      8.828754140740
     292   98  1  -0.84760     -1.950189210090    -11.166445344400      0.237809865274
     293   98  2   0.42380     -1.044922414090    -11.578287285200      0.133511045098
     294   98  2   0.42380     -1.863246913840    -10.282240341900      0.696746190681
     295   99  1  -0.84760    -21.514198789300    -15.521489572500     -1.162417513380
     296   99  2   0.42380    -21.322004294200    -15.666527408000     -2.132997392800
     297   99  2   0.42380    -20.794118926600    -15.945395466600     -0.613064453586
     298  100  1  -0.84760    -19.195935393200    -16.488901225900     11.736776963700
     299  100  2   0.42380    -19.346723788300    -16.636704355800     10.759322568500
     300  100  2   0.42380    -18.871166856000    -15.555028055100     11.886464298700
     301  101  1  -0.84760     -0.219245366947     18.271982706900      6.439106595800
     302  101  2   0.42380      0.490182372463     18.594864186600      5.812640449380
     303  101  2   0.42380     -0.048679733709     18.639082082000      7.353516467550
     304  102  1  -0.84760    -15.580351299000     15.845765427400    -13.038724186300
     305  102  2   0.42380    -14.681249666400     16.186313460700    -13.313757441000
     306  102  2   0.42380    -16.194956822700     15.852613229000    -13.827529078400
     307  103  1  -0.84760     16.727636451900    -20.726426398000    -11.891977175200
     308  103  2   0.42380     16.543568345000    -19.758269086800    -11.722299973500
     309  103  2   0.42380     17.410367004300    -20.813762491400    -12.617409046400
     310  104  1  -0.84760    -13.841770578700    -14.581720440700     18.768976152200
     311  104  2   0.42380    -14.442815891700    -14.346528868900     18.005150611800
     312  104  2   0.42380    -13.353983926900    -13.763570636100     19.073434818600
     313  105  1  -0.84760     17.477381496300     11.225074731400    -16.230099462700
     314  105  2   0.42380     18.071961767100     11.080188202300    -17.020973786000
     315  105  2   0.42380     18.037070081600     11.395026989100    -15.419010739100
     316  106  1  -0.84760     18.142610117900    -12.765996859200     12.907333274900
     317  106  2   0.42380     18.135838575000    -13.668236734000     12.476151927300
     318  106  2   0.42380     17.759017758200    -12.833839536200     13.828340480600
     319  107  1  -0.84760     14.629781945900     19.439095264500      9.818929038680
     320  107  2   0.42380     14.501699992600     20.164683123300      9.142824555280
     321  107  2   0.42380     14.053692811400     18.656913397700      9.581625780620
     322  108  1  -0.84760     -6.082542625190     22.123031025300     21.786033221400
     323  108  2   0.42380     -6.809983932150     22.797792948686     21.661431890500
     324  108  2   0.42380     -6.428169480250     21.213684744200     21.554448640700
     325  109  1  -0.84760     -4.636234794560     10.608322150800     -7.196019704440
     326  109  2   0.42380     -4.130190580950      9.906182606500     -6.695101233770
     327  109  2   0.42380     -4.254385065920     11.508294605000     -6.985685764270
     328  110  1  -0.84760     15.730397414700     18.894990188700    -13.735555742700
     329  110  2   0.42380     16.272043632700     19.693009152600    -13.471387032100
     330  110  2   0.42380     15.949234722900     18.640619183300    -14.677577835900
     331  111  1  -0.84760     12.615335724700     20.244341645400    -17.417028140800
     332  111  2   0.42380     12.846267027600     20.784869966400    -18.226039801800
     333  111  2   0.42380     11.914546856600     20.721200061100    -16.886461449700
     334  112  1  -0.84760    -14.284117254100     11.387449890200     -4.002311523250
     335  112  2   0.42380    -15.182828147000     11.243611116200     -3.588030051140
     336  112  2   0.42380    -13.765739075100     12.044000837500     -3.454383683970
     337  113  1  -0.84760      1.207671586630     18.478300441000     -4.954324487600
     338  113  2   0.42380      0.674004765204     19.006459497300     -5.614815013620
     339  113  2   0.42380      2.182524889000     18.594233006300     -5.144641799430
     340  114  1  -0.84760      2.912619307520      1.037083532240      6.858672768970