LAMMPS Atom File

         4500 atoms
         3000 bonds
         1500 angles
           0 dihedrals
           0 impropers

           2 atom types
           1 bond types
           1 angle types

         0.0  37.5134995222 xlo xhi
         0.0  37.5134995222 ylo yhi
         0.0  37.5134995222 zlo zhi

Masses

         1   15.9994
         2   1.00794

Atoms

       1    1  1  -0.84760    -16.990381302900      1.942911195990    -16.605142793100
       2    1  2   0.42380    -16.026631993300      2.053152498300    -16.362173405200
       3    1  2   0.42380    -17.105733235400      2.092237271540    -17.587179276500
       4    2  1  -0.84760    -16.416383327900     -9.143787913370     -9.753735019150
       5    2  2   0.42380    -15.626627366500     -8.770445575060    -10.240459807900
       6    2  2   0.42380    -17.211579340200     -9.144936185840    -10.360086388800
       7    3  1  -0.84760     -5.306148715050     14.700885991400     -5.935391873130
       8    3  2   0.42380     -5.055359453750     14.408708459300     -5.012495868050
       9    3  2   0.42380     -6.217871700680     15.111358295200     -5.918848436920
      10    4  1  -0.84760     17.190529643600    -14.885258193700      5.163469806310
      11    4  2   0.42380     17.944120991900    -14.416118873800      5.623913481900
      12    4  2   0.42380     17.553261109800    -15.634375778500      4.609169592010
      13    5  1  -0.84760     -0.287361397653      8.893442703120     -9.747262063950
      14    5  2   0.42380     -1.126499511560      8.350130683580     -9.772938418920
      15    5  2   0.42380      0.478043003710      8.340315640220    -10.076209711200
      16    6  1  -0.84760     -5.186089650670    -12.632959774900      5.351204110900
      17    6  2   0.42380     -5.360246182430    -12.110698631200      6.186017144030
      18    6  2   0.42380     -5.494797414450    -13.575717702000      5.477327096500
      19    7  1  -0.84760    -12.823510042300     -3.825393024720     18.476238686700
      20    7  2   0.42380    -13.821272308500     -3.852960157600     18.537152670200
      21    7  2   0.42380    -12.553330769800     -3.309317973370     17.663422777600
      22    8  1  -0.84760     15.808429662900    -18.259343505400    -15.594339621400
      23    8  2   0.42380     16.104727496000    -18.380684954300    -14.646983380700
      24    8  2   0.42380     15.457575439400    -19.126616053772    -15.947524616300
      25    9  1  -0.84760    -11.006146954700      2.468724917960     14.810367864700
      26    9  2   0.42380    -11.122924234900      2.417383623160     13.818537668400
      27    9  2   0.42380    -11.795818618100      2.052325448070     15.260956530300
      28   10  1  -0.84760     -5.401444509150    -16.326648917500      0.953141250060
      29   10  2   0.42380     -5.296489190290    -15.522516067500      1.538252129030
      30   10  2   0.42380     -6.373824007310    -16.502874464900      0.800096589870
      31   11  1  -0.84760     -1.154774831540      9.295573445550     12.248959893800
      32   11  2   0.42380     -1.000574989660     10.276728171500     12.132521874200
      33   11  2   0.42380     -0.830640611534      9.012022373630     13.151476263200
      34   12  1  -0.84760    -12.798828324600     10.609845758100     14.127173980100
      35   12  2   0.42380    -12.775122818600     11.607035153600     14.198246890700
      36   12  2   0.42380    -13.596708532900     10.259592324600     14.617795734000
      37   13  1  -0.84760    -16.522211565500     11.394778183300      9.238532663540
      38   13  2   0.42380    -17.507315859900     11.421038684300      9.408473580260
      39   13  2   0.42380    -16.035998252100     11.736319156600     10.042862432700
      40   14  1  -0.84760      5.436671497960      2.717781403240     14.392146888200
      41   14  2   0.42380      5.292042566650      3.681844792700     14.615001669100
      42   14  2   0.42380      6.406963604790      2.495516984490     14.487707107900
      43   15  1  -0.84760     -9.706592371800    -15.072469370400     -2.566337023870
      44   15  2   0.42380    -10.012260629500    -14.197968083000     -2.189754477070
      45   15  2   0.42380     -9.941111875060    -15.808865177800     -1.931733354310
      46   16  1  -0.84760     18.519707012700      8.603753605030     -1.911511737190
      47   16  2   0.42380     17.829740607100      8.690064822170     -2.630188808650
      48   16  2   0.42380     19.125350061972      9.399182216050     -1.933643650500
      49   17  1  -0.84760      3.048124674660      1.473336362390     13.800232584100
      50   17  2   0.42380      3.996193099260      1.369117524010     13.499725186500
      51   17  2   0.42380      3.030405238040      1.891118388430     14.708607066500
      52   18  1  -0.84760     -9.642128005420      8.655957533610      4.017870575360
      53   18  2   0.42380     -9.029706049560      8.585742778160      4.805277227670
      54   18  2   0.42380     -9.848324199930      7.740132504180      3.673272773810
      55   19  1  -0.84760      7.439030729390     -3.580060203620     10.829104253600
      56   19  2   0.42380      7.451336842200     -4.548450467680     10.579968033700
      57   19  2   0.42380      7.694294103420     -3.028349013300     10.035092054500
      58   20  1  -0.84760     -0.276104138417      0.497454774937     -5.448338143620
      59   20  2   0.42380      0.275790447108      1.165860072390     -4.949693255140
      60   20  2   0.42380      0.048216076122      0.435163501656     -6.392232309150
      61   21  1  -0.84760     -7.888895297370     16.814023579500      6.258278469280
      62   21  2   0.42380     -7.131948227270     17.433270471000      6.049557554120
      63   21  2   0.42380     -7.620002811240     16.196112482900      6.997117225470
      64   22  1  -0.84760      6.166217769060     -5.388003598230     17.158937625400
      65   22  2   0.42380      6.757170178260     -5.364847300160     17.965311630400
      66   22  2   0.42380      6.441686460310     -4.667092612900     16.523009680300
      67   23  1  -0.84760    -17.967217901300     11.864130884200    -18.738370493100
      68   23  2   0.42380    -18.064217198900     11.844937247300    -19.733469855272
      69   23  2   0.42380    -17.028640316400     12.113358771300    -18.499712625900
      70   24  1  -0.84760    -13.150356579600    -12.660136300200    -16.369524769300
      71   24  2   0.42380    -12.579057895400    -12.461074432600    -17.165761032200
      72   24  2   0.42380    -14.097777014100    -12.409070578900    -16.567919637800
      73   25  1  -0.84760     13.338721770100     -7.507709859830      8.322401113690
      74   25  2   0.42380     12.530643424500     -7.866112533800      8.789901820260
      75   25  2   0.42380     13.195381653600     -7.544564612080      7.333414087380
      76   26  1  -0.84760     -5.285576970110     -4.965726112250    -11.805854109000
      77   26  2   0.42380     -5.047129012880     -4.231505540990    -11.170194825700
      78   26  2   0.42380     -5.504945039910     -4.574618757080    -12.699673266700
      79   27  1  -0.84760     10.546900215900     10.978318874500      6.456498391010
      80   27  2   0.42380      9.664535800340     10.524943743400      6.582530246780
      81   27  2   0.42380     11.032871395700     11.010485640900      7.329881074360
      82   28  1  -0.84760      8.734295225210     -0.104815523002     -1.522269245840
      83   28  2   0.42380      7.880345853480      0.141015786469     -1.980894842370
      84   28  2   0.42380      8.896421145510     -1.086378019110     -1.623512775000
      85   29  1  -0.84760     -8.455188568860      7.886334852790     -1.262682482870
      86   29  2   0.42380     -7.895950195340      8.052833955690     -0.450567657046
      87   29  2   0.42380     -8.382190070650      8.666949232870     -1.883417860360
      88   30  1  -0.84760      1.230961662820     16.563319769500      0.764128472500
      89   30  2   0.42380      1.081879583880     17.511979622300      1.043089074550
      90   30  2   0.42380      2.152338683030     16.467528484500      0.387447684103
      91   31  1  -0.84760     12.497378651200      1.533996402270      7.789067345210
      92   31  2   0.42380     12.337453669500      2.521027109150      7.803009508560
      93   31  2   0.42380     13.401463096700      1.348225363270      7.404203166100
      94   32  1  -0.84760      1.880561681320    -17.216816407600      7.175491146800
      95   32  2   0.42380      2.389909515750    -17.438349104000      6.343933543260
      96   32  2   0.42380      1.024878798830    -16.760859390400      6.930725946930
      97   33  1  -0.84760    -13.643374540200     -9.051541309340     -8.495548802730
      98   33  2   0.42380    -12.655009405100     -8.904594196920     -8.534803178820
      99   33  2   0.42380    -14.116069644600     -8.211971706130     -8.763284156430
     100   34  1  -0.84760     -6.774303511830     -7.173485808870     -9.403251336930
     101   34  2   0.42380     -6.151010026200     -7.368880654870    -10.160434330000
     102   34  2   0.42380     -7.469403558350     -6.520397718250     -9.703770672770
     103   35  1  -0.84760    -13.754682020200     11.421342423100     10.477000872800
     104   35  2   0.42380    -12.857215799900     11.480954771800     10.914037200100
     105   35  2   0.42380    -13.651497935000     11.054414612700      9.552491799580
     106   36  1  -0.84760     10.537171143600    -14.140811609900    -13.638842161800
     107   36  2   0.42380      9.777034473630    -14.765374442900    -13.818044590900
     108   36  2   0.42380     10.507867218900    -13.384088086400    -14.291920096600
     109   37  1  -0.84760     -1.187712913180      6.684706834800     17.893984455000
     110   37  2   0.42380     -0.521908550903      6.020906971310     17.553287680100
     111   37  2   0.42380     -1.894906954570      6.832381875400     17.202559354000
     112   38  1  -0.84760     18.079229461900    -17.757197275700    -11.475640565200
     113   38  2   0.42380     18.032890382300    -17.074091184500    -10.746793010600
     114   38  2   0.42380     17.755954048200    -17.353752652500    -12.331634398600
     115   39  1  -0.84760      1.686500778980     17.150469355500     16.723541396700
     116   39  2   0.42380      1.087144633010     17.920657535100     16.505407542700
     117   39  2   0.42380      1.869700949710     17.138674239800     17.706546265800
     118   40  1  -0.84760      7.277407508600     14.095264989600     15.866542187900
     119   40  2   0.42380      7.201787776870     13.215650492300     16.336180338300
     120   40  2   0.42380      7.965430218920     14.659020081900     16.323493986200
     121   41  1  -0.84760    -11.994836671900    -13.417572166500     16.182378262200
     122   41  2   0.42380    -11.742144241400    -13.892969740600     17.025078494900
     123   41  2   0.42380    -12.005363877700    -14.068135133400     15.422998907800
     124   42  1  -0.84760     17.359197242600    -16.418078506600    -14.102995815100
     125   42  2   0.42380     16.577091568600    -16.225958288500    -13.510205349200
     126   42  2   0.42380     17.143544290600    -16.141433266000    -15.039457888600
     127   43  1  -0.84760    -11.941388273600      1.680026799030     -9.824213784640
     128   43  2   0.42380    -10.972208120400      1.490003311490     -9.667430797640
     129   43  2   0.42380    -12.459891688200      0.826098949778     -9.779925668050
     130   44  1  -0.84760     -5.280329524030      2.416260447950    -13.809670544900
     131   44  2   0.42380     -4.706896324290      3.033157752950    -13.270586061300
     132   44  2   0.42380     -4.704174669160      1.734943540670    -14.261171215000
     133   45  1  -0.84760      4.760669277280      8.371776845740     12.026178206300
     134   45  2   0.42380      4.621758579670      7.469378342630     12.434076183300
     135   45  2   0.42380      4.087010210290      8.517324177610     11.301609758400
     136   46  1  -0.84760     -0.895798141097     10.116292781600      2.478910005050
     137   46  2   0.42380     -1.435991061210     10.472610302100      1.716525959050
     138   46  2   0.42380     -0.495472592769     10.877952141500      2.988433777620
     139   47  1  -0.84760      7.141005315490    -12.757249779000      9.568996165940
     140   47  2   0.42380      6.578832253060    -11.982308206600      9.857833502960
     141   47  2   0.42380      7.923892069670    -12.848796842700     10.184388289100
     142   48  1  -0.84760      8.282616318030    -12.637713053800    -14.759713818300
     143   48  2   0.42380      8.990586479270    -13.175473456600    -14.301901629700
     144   48  2   0.42380      7.396543941850    -12.822505849000    -14.334593403600
     145   49  1  -0.84760     -3.700322206280      3.244596957290    -17.562484231100
     146   49  2   0.42380     -4.045566368550      4.182117847430    -17.605624107900
     147   49  2   0.42380     -2.951437655240      3.195258586650    -16.901622933700
     148   50  1  -0.84760      8.236830330320     13.763573138600     13.240686856300
     149   50  2   0.42380      7.356544682340     13.467940272300     12.869609524200
     150   50  2   0.42380      8.105560966870     14.121503841400     14.165161824100
     151   51  1  -0.84760      8.787718549730     -2.707096066620     -2.435714468820
     152   51  2   0.42380      8.512902578730     -3.595366456940     -2.067676568920
     153   51  2   0.42380      8.942819724110     -2.787792366940     -3.420311712780
     154   52  1  -0.84760     -9.519369836280     -6.376184507020      4.597075802470
     155   52  2   0.42380     -9.360011853770     -5.401569723690      4.754336915080
     156   52  2   0.42380     -8.874896196950     -6.712775526180      3.910519021120
     157   53  1  -0.84760     -3.107223708780     -6.777255758310     -1.293307600750
     158   53  2   0.42380     -3.089238375140     -6.470673595880     -2.244981865110
     159   53  2   0.42380     -2.809167292780     -6.031683896790     -0.697249740984
     160   54  1  -0.84760     18.704764382600     -5.187151397120     -6.928110684970
     161   54  2   0.42380     18.763267847372     -4.216883695370     -7.162967942790
     162   54  2   0.42380     17.782642768900     -5.521995907880     -7.121942785680
     163   55  1  -0.84760     -8.849437209430     -4.744558998000     18.318157757200
     164   55  2   0.42380     -9.103619013660     -3.862861625370     17.920663916400
     165   55  2   0.42380     -9.012586463720     -5.470727142610     17.650278915900
     166   56  1  -0.84760      2.769655896040      8.509363928520      9.974203069190
     167   56  2   0.42380      2.718517424920      7.510688575630      9.968511294350
     168   56  2   0.42380      2.157456053510      8.878453164680      9.274928810720
     169   57  1  -0.84760     -5.667522615850      6.202615327000     14.875952050400
     170   57  2   0.42380     -4.916483690070      6.772349320300     15.209634098000
     171   57  2   0.42380     -6.532985068960      6.689596418320     14.993528234100
     172   58  1  -0.84760    -12.277223291400     -5.003595724770     -2.293048135640
     173   58  2   0.42380    -12.754119831100     -5.483087756630     -1.556395516120
     174   58  2   0.42380    -12.440323136500     -4.020392623170     -2.211132926220
     175   59  1  -0.84760     -1.834038021410     14.905408249900     12.900227108100
     176   59  2   0.42380     -1.640959465600     15.456075799300     12.088139722800
     177   59  2   0.42380     -2.487696892540     15.388454587800     13.482804412500
     178   60  1  -0.84760     -8.864107248910    -18.279965394800     -2.156400139440
     179   60  2   0.42380     -9.083931146740    -19.234109757372     -2.359589679760
     180   60  2   0.42380     -8.436434661460    -18.221254640200     -1.254375081460
     181   61  1  -0.84760    -10.565405416200    -18.003539532800      3.572341432730
     182   61  2   0.42380    -10.203628787500    -17.190660100300      3.115893517750
     183   61  2   0.42380     -9.807036065430    -18.571804741900      3.891638441530
     184   62  1  -0.84760     -7.109580625730     15.039935172100    -15.172917274700
     185   62  2   0.42380     -7.665630963150     15.870362757300    -15.207530102400
     186   62  2   0.42380     -6.531638633600     14.991591926800    -15.987561972900
     187   63  1  -0.84760    -11.332874527300     10.723829868300    -13.118646618300
     188   63  2   0.42380    -11.539638929000     11.690985713800    -13.266491309300
     189   63  2   0.42380    -12.071172766500     10.163882491400    -13.494644816600
     190   64  1  -0.84760    -10.231983656300     -3.534710141780     -9.308389984250
     191   64  2   0.42380     -9.523962096840     -3.913716395530     -8.712521096920
     192   64  2   0.42380    -11.117730972800     -3.584363344530     -8.846885649610
     193   65  1  -0.84760      3.480306281600     18.667950676400     13.667241460300
     194   65  2   0.42380      3.246852452230     17.699272382900     13.582614790400
     195   65  2   0.42380      2.690022877890     19.224832276472     13.411634290400
     196   66  1  -0.84760     17.569372369500    -15.275987325700      9.840732222450
     197   66  2   0.42380     18.486883808100    -14.908280030900      9.689193100550
     198   66  2   0.42380     17.620021907700    -16.270322715600      9.934176091740
     199   67  1  -0.84760    -10.195040506000     -3.792659104170     11.657720469100
     200   67  2   0.42380     -9.437259599540     -3.600177986880     11.034247039600
     201   67  2   0.42380     -9.905200497000     -3.617599722500     12.598649256100
     202   68  1  -0.84760     -0.285125581703    -12.946650168100      2.967025455720
     203   68  2   0.42380      0.292534007197    -12.549787903800      3.680334464840
     204   68  2   0.42380     -0.525145588117    -12.240278167600      2.301120812890
     205   69  1  -0.84760     13.282083356300    -15.104269841300      3.430642379820
     206   69  2   0.42380     12.330434921700    -15.352294340500      3.249399159720
     207   69  2   0.42380     13.884654170000    -15.640456799800      2.839531594960
     208   70  1  -0.84760     13.701968029100      3.652651852420     16.888613263000
     209   70  2   0.42380     14.183412574800      3.682367029330     17.764585955300
     210   70  2   0.42380     14.123641836500      2.963145250630     16.299739892700
     211   71  1  -0.84760     -2.791748704790     -5.264807666060      1.475938239420
     212   71  2   0.42380     -3.304739579160     -6.112622150190      1.341584366010
     213   71  2   0.42380     -1.823754255280     -5.478284629620      1.607901612130
     214   72  1  -0.84760     16.376518211300      7.798021987990    -17.218695740500
     215   72  2   0.42380     17.120189586700      7.446634279910    -16.649943101800
     216   72  2   0.42380     16.742939934900      8.453974885260    -17.878590366200
     217   73  1  -0.84760     -1.560628835210     -6.953822387530    -15.030812396900
     218   73  2   0.42380     -0.886364713122     -6.215797824340    -15.057035245500
     219   73  2   0.42380     -2.427507637530     -6.626835432650    -15.407111046200
     220   74  1  -0.84760     11.115511579200    -12.402896200900      3.762964505330
     221   74  2   0.42380     10.358789639200    -11.832807617200      3.443009958170
     222   74  2   0.42380     11.978357942000    -12.039328989300      3.411802097140
     223   75  1  -0.84760     -2.539215577310      6.479343498020     -8.580496162650
     224   75  2   0.42380     -3.536603134740      6.548155250570     -8.558518833600
     225   75  2   0.42380     -2.202368049540      6.228101738810     -7.673076016590
     226   76  1  -0.84760     13.802014793400      1.585404674700    -16.214811514400
     227   76  2   0.42380     14.368913308200      2.066956104090    -16.883193362500
     228   76  2   0.42380     14.378208486300      1.248430124100    -15.470198205000
     229   77  1  -0.84760     -2.339658532330    -13.840711432600     -5.034127826730
     230   77  2   0.42380     -1.381722621970    -13.622241651000     -4.848037133350
     231   77  2   0.42380     -2.715410313080    -14.367965144700     -4.272016206020
     232   78  1  -0.84760    -15.130324265500    -11.833423299500     15.094780756300
     233   78  2   0.42380    -15.775265351800    -12.059132340300     15.824922129000
     234   78  2   0.42380    -14.203895039500    -11.793054241000     15.469079071100
     235   79  1  -0.84760      6.491975602690     -7.099364562260     -4.249082535900
     236   79  2   0.42380      7.116867958590     -7.227504344720     -5.019205733630
     237   79  2   0.42380      6.969975894040     -6.630278313230     -3.506469707810
     238   80  1  -0.84760     14.567810620100      5.443927499550     14.142481403300
     239   80  2   0.42380     13.882050050700      6.166764683130     14.227562820000
     240   80  2   0.42380     14.428931602600      4.766075586640     14.864443592500
     241   81  1  -0.84760     15.521126566000    -18.128109341300     18.215897122100
     242   81  2   0.42380     14.556088370600    -17.870904441600     18.165430093600
     243   81  2   0.42380     15.721603465700    -18.809871017872     17.512327630900
     244   82  1  -0.84760      9.502432594440     -6.145620095110     -8.311858057980
     245   82  2   0.42380      9.199253601520     -5.964586238960     -9.247437686430
     246   82  2   0.42380      9.210760371630     -7.062227660720     -8.038439175840
     247   83  1  -0.84760    -10.044737384200      5.821693126700      5.348185765630
     248   83  2   0.42380     -9.663933591180      5.017760072130      4.891370578740
     249   83  2   0.42380    -10.009941625800      5.689859546400      6.338846738060
     250   84  1  -0.84760      7.324664484710     12.874020424600     -3.562893810470
     251   84  2   0.42380      7.926459325900     13.669589267600     -3.632987926900
     252   84  2   0.42380      7.864399871200     12.038047108000     -3.662061983680
     253   85  1  -0.84760     17.649167998000     -8.483820241080      5.272542312050
     254   85  2   0.42380     17.643010687600     -8.954931850460      4.390490193960
     255   85  2   0.42380     16.725241389700     -8.480490966920      5.655097587180
     256   86  1  -0.84760      7.613637070070     10.331379112600     -5.319879215700
     257   86  2   0.42380      7.494812741460      9.591771441520     -4.657413162400
     258   86  2   0.42380      6.821443854470     10.940646103500     -5.284898607170
     259   87  1  -0.84760     -2.025231998710     17.458309186000     -8.173110477920
     260   87  2   0.42380     -1.625065843170     16.541935316600     -8.161886418960
     261   87  2   0.42380     -1.486525892090     18.064451340600     -7.587971674690
     262   88  1  -0.84760     -0.384764567995      3.953259654100     -8.138833559460
     263   88  2   0.42380     -0.769483229360      4.613041546550     -8.784340651590
     264   88  2   0.42380     -0.653695877116      3.028347450660     -8.407559008390
     265   89  1  -0.84760    -18.665275689500     17.388407692200     17.828761324700
     266   89  2   0.42380    -18.308396101100     17.394261938100     18.762893374872
     267   89  2   0.42380    -18.343681965400     18.201776824600     17.343984952500
     268   90  1  -0.84760     11.292109811200     15.621006378500     17.566047129000
     269   90  2   0.42380     11.759885344500     15.793119134500     16.699119652400
     270   90  2   0.42380     11.267560216600     14.636896061300     17.741899911500
     271   91  1  -0.84760    -15.865663252900    -17.808019040300     -4.112024075730
     272   91  2   0.42380    -15.440370635700    -17.597953895000     -4.992364251150
     273   91  2   0.42380    -15.154612155800    -17.939830700900     -3.421349026550
     274   92  1  -0.84760      3.867531582440    -15.862825300400     -7.240923339120
     275   92  2   0.42380      3.289006740540    -16.532639485300     -7.706388660180
     276   92  2   0.42380      3.323329806290    -15.056723854800     -7.008447778680
     277   93  1  -0.84760    -18.434121760500     10.826950436200    -14.625683726200
     278   93  2   0.42380    -18.743131594900      9.959887866550    -15.016471933100
     279   93  2   0.42380    -18.131709240200     11.434583403400    -15.360073843700
     280   94  1  -0.84760    -18.152575018900    -12.012335304800     -2.705471057140
     281   94  2   0.42380    -17.695002665900    -11.420147600400     -3.368751740220
     282   94  2   0.42380    -19.069977998772    -12.235432431000     -3.035015355870
     283   95  1  -0.84760    -16.083959558900    -13.815780010500      9.834052999720
     284   95  2   0.42380    -16.489346393300    -13.049077960000      9.336228251180
     285   95  2   0.42380    -15.109810088400    -13.641845311300      9.978204065200
     286   96  1  -0.84760     -0.218025350371     14.270573210400      6.267047983930
     287   96  2   0.42380      0.395290624814     13.840589481700      6.929586667800
     288   96  2   0.42380     -0.255204308808     13.713935345800      5.437125088290
     289   97  1  -0.84760    -13.958155418400     13.077239268100     -9.569570549630
     290   97  2   0.42380    -14.454215132800     13.169302927000    -10.432964458800
     291   97  2   0.42380    -14.542304939300     13.378244926600     -8.815803390140
     292   98  1  -0.84760     14.927462050500    -15.896879980100     -6.769480386360
     293   98  2   0.42380     15.236689040200    -15.805239578700     -7.716042959910
     294   98  2   0.42380     15.669678376200    -16.266849216400     -6.210698058420
     295   99  1  -0.84760     11.787172424200      7.722872117340    -14.315606314300
     296   99  2   0.42380     12.122368201000      6.800556868630    -14.507903930400
     297   99  2   0.42380     12.058095032200      8.337227406050    -15.056665367000
     298  100  1  -0.84760     14.702783396700    -10.102095356300      9.941700336570
     299  100  2   0.42380     14.717894623100     -9.733325945060      9.012302266770
     300  100  2   0.42380     14.324628463300    -11.027719572800      9.926913309300
     301  101  1  -0.84760     12.850819536500     14.702831558800      9.163010507950
     302  101  2   0.42380     13.260478486200     15.614737365300      9.138366137240
     303  101  2   0.42380     12.206306307000     14.647464891200      9.925596391060
     304  102  1  -0.84760     -5.488653477140    -17.698517018800    -17.543599606600
     305  102  2   0.42380     -4.644014085700    -17.274617672500    -17.216653674300
     306  102  2   0.42380     -5.318451469490    -18.147337843900    -18.420863046800
     307  103  1  -0.84760     -2.665124227160      7.416102448710     -4.559390369500
     308  103  2   0.42380     -2.800216221340      6.485893989170     -4.218124527510
     309  103  2   0.42380     -3.503238743380      7.733337180410     -5.003154025850
     310  104  1  -0.84760     11.392475107400     14.272177762900    -13.244675751900
     311  104  2   0.42380     11.187555353900     14.898031495100    -12.492136716000
     312  104  2   0.42380     10.653238248800     14.306285053500    -13.917257018000
     313  105  1  -0.84760     10.430840148800    -18.400463770100    -18.401531201700
     314  105  2   0.42380     10.877515350100    -19.202225758972    -18.798594140972
     315  105  2   0.42380     10.299950277900    -17.706852836000    -19.109889665872
     316  106  1  -0.84760     -2.008302752060     17.130586992000     -3.893140854430
     317  106  2   0.42380     -2.276901887520     17.294259618000     -4.842385699510
     318  106  2   0.42380     -2.346042358970     17.875646247100     -3.317972475410
     319  107  1  -0.84760    -18.364297257000     16.806251450200      4.557445167350
     320  107  2   0.42380    -17.482690764000     16.416817339500      4.290778587370
     321  107  2   0.42380    -19.085427590872     16.426349142300      3.978096155180
     322  108  1  -0.84760     -0.222224736821      3.873542675260      2.265116796080
     323  108  2   0.42380     -0.167562955463      4.389037473670      3.120264270190
     324  108  2   0.42380     -0.676668014847      4.429585667030      1.569201931770
     325  109  1  -0.84760      1.886041354720     -9.333522322060      0.954546888040
     326  109  2   0.42380      2.238662917760     -8.541215851590      1.452450985360
     327  109  2   0.42380      2.639068990410     -9.956774337810      0.743581713769
     328  110  1  -0.84760    -10.132866095100     -7.834421510960     -7.541724635380
     329  110  2   0.42380     -9.914431031090     -7.464886738020     -8.444902455300
     330  110  2   0.42380    -10.504324221100     -8.757629038320     -7.640247333780
     331  111  1  -0.84760      9.725366742510     -3.823288420600      4.454339485350
     332  111  2   0.42380      9.278501261550     -3.623205436750      3.582400243490
     333  111  2   0.42380      9.436063797570     -4.724087724320      4.778167248930
     334  112  1  -0.84760     -4.782928082930     17.483376788900    -14.367252842500
     335  112  2   0.42380     -5.076209302640     18.299824678800    -14.864645010900
     336  112  2   0.42380     -5.466265259400     16.761817383400    -14.478618580500
     337  113  1  -0.84760    -13.439106587700     -0.943517661518    -18.718970245600
     338  113  2   0.42380    -13.228579097800     -1.347650548360    -17.828827119000
     339  113  2   0.42380    -13.265743569100      0.040837885007    -18.687515169300
     340  114  1  -0.84760      3.703287479910     -1.236068559900      5.116374165860