LAMMPS Atom File

         4500 atoms
         3000 bonds
         1500 angles
           0 dihedrals
           0 impropers

           2 atom types
           1 bond types
           1 angle types

         0.0  39.5561992006 xlo xhi
         0.0  39.5561992006 ylo yhi
         0.0  39.5561992006 zlo zhi

Masses

         1   15.9994
         2   1.00794

Atoms

       1    1  1  -0.84760    -16.584816295300      3.793495885350    -18.030798520500
       2    1  2   0.42380    -15.717764437400      4.195099458300    -18.325647034000
       3    1  2   0.42380    -16.770569103100      2.970479078600    -18.567584539500
       4    2  1  -0.84760     -8.862946002980     15.291131219900     -5.912358833350
       5    2  2   0.42380     -9.675868296840     15.800366653100     -5.629805090290
       6    2  2   0.42380     -8.784692030640     14.457850641900     -5.365074817370
       7    3  1  -0.84760     19.350609310200    -14.679773985000      5.617059199700
       8    3  2   0.42380     19.106747578300    -14.768804141700      4.651344393490
       9    3  2   0.42380     19.746331467500    -15.538931677200      5.941484898530
      10    4  1  -0.84760      1.649662749580      9.366541918290    -10.861914950900
      11    4  2   0.42380      2.083792747790     10.220192928200    -10.574145776300
      12    4  2   0.42380      1.616938326980      8.732327274330    -10.089450778600
      13    5  1  -0.84760     -5.523375900780    -13.375372536700      5.759609060820
      14    5  2   0.42380     -6.503959466640    -13.351646727000      5.564947928780
      15    5  2   0.42380     -5.103352791590    -14.135244704100      5.263448928440
      16    6  1  -0.84760    -13.619162830000     -4.164529157820     19.424273869600
      17    6  2   0.42380    -12.851226765100     -3.762995630580     19.923317982560
      18    6  2   0.42380    -14.309954749600     -3.461818793980     19.253966299600
      19    7  1  -0.84760     18.415681334800     18.643037034300    -13.960084762000
      20    7  2   0.42380     18.967316902000     18.375289259500    -14.750027373900
      21    7  2   0.42380     17.577554395200     19.088776610400    -14.274504009700
      22    8  1  -0.84760    -12.474512254400      0.791034888963     12.330049926600
      23    8  2   0.42380    -12.522218713100      1.016308998260     11.356923177700
      24    8  2   0.42380    -13.115332177600      1.367212538530     12.837365550300
      25    9  1  -0.84760     -7.285436586390    -15.107700795500      1.100540000850
      26    9  2   0.42380     -7.521582052430    -14.168087128700      0.852827514129
      27    9  2   0.42380     -6.795114611540    -15.538883521300      0.343132700939
      28   10  1  -0.84760     -1.001658467920      6.328597799070     12.683671042700
      29   10  2   0.42380     -0.264026934645      6.237137642340     12.014690653700
      30   10  2   0.42380     -1.664441935720      5.591473861020     12.551889500800
      31   11  1  -0.84760    -14.324342350500      8.559733989270     12.874308666500
      32   11  2   0.42380    -14.578578895500      8.824988170430     11.944252755000
      33   11  2   0.42380    -14.884883172800      9.065393076120     13.530130955300
      34   12  1  -0.84760    -15.775489769300     13.407359196000      9.203436085100
      35   12  2   0.42380    -15.979809431700     12.790769603200      9.963745725730
      36   12  2   0.42380    -15.672711041700     14.340080968300      9.549075533920
      37   13  1  -0.84760      6.372755830820      2.270401349340     14.433343028700
      38   13  2   0.42380      6.546082058710      2.086450493750     13.465810031100
      39   13  2   0.42380      6.750839735120      1.528196611910     14.986682607100
      40   14  1  -0.84760     -7.668632132500    -15.699520163500     -6.107883078280
      41   14  2   0.42380     -7.483060773350    -15.077707723500     -6.868746114620
      42   14  2   0.42380     -8.121378690090    -16.521933948500     -6.452348055980
      43   15  1  -0.84760    -18.401688322900      8.086657153930      0.118774889589
      44   15  2   0.42380    -19.083856936900      7.355777316670      0.097312233039
      45   15  2   0.42380    -18.192477309700      8.374873398670     -0.815656567604
      46   16  1  -0.84760      0.771051141328      4.624029788830     15.243132861200
      47   16  2   0.42380      1.436170256230      4.314835159200     15.922849893500
      48   16  2   0.42380      1.103602740570      5.460701928300     14.807944206800
      49   17  1  -0.84760     -7.983929642090      5.396803917850      4.183721873330
      50   17  2   0.42380     -8.366110440770      4.739645249460      3.534044783010
      51   17  2   0.42380     -7.094435590040      5.070482973220      4.503588990200
      52   18  1  -0.84760     10.099231659600      1.687010145010     17.801375007300
      53   18  2   0.42380      9.463514065140      2.449720664700     17.682480923000
      54   18  2   0.42380     10.321634685000      1.296140114190     16.908202284200
      55   19  1  -0.84760     -4.400910464050      1.994755163070     -5.729025062920
      56   19  2   0.42380     -3.997490377820      2.046950135530     -4.815500066610
      57   19  2   0.42380     -5.005200467590      2.778619918610     -5.871817347850
      58   20  1  -0.84760     -5.630564664460     19.202309857700      8.302269814120
      59   20  2   0.42380     -5.519907616820     19.222878355100      9.295915603490
      60   20  2   0.42380     -4.734109924860     19.276849886100      7.865448701980
      61   21  1  -0.84760      6.981948019200     -6.610715110370     19.240027757200
      62   21  2   0.42380      7.078621838800     -5.834116848520     18.617493170000
      63   21  2   0.42380      7.761743736770     -6.635538397630     19.865569477060
      64   22  1  -0.84760    -18.857501360500     12.767335134500    -15.839979218500
      65   22  2   0.42380    -18.025328637500     12.707585396000    -16.391267280900
      66   22  2   0.42380    -19.374459808300     13.581619606500    -16.103976873700
      67   23  1  -0.84760    -11.679750923900    -14.464931668800    -16.676059913400
      68   23  2   0.42380    -12.547527890500    -14.590999856000    -16.195362556900
      69   23  2   0.42380    -11.799897983400    -14.685105326600    -17.644093097000
      70   24  1  -0.84760     14.122566561400     -9.246223239660      8.372759044980
      71   24  2   0.42380     14.447314119500     -9.232725192220      7.427054637560
      72   24  2   0.42380     14.689290812100     -9.870093403190      8.910912966060
      73   25  1  -0.84760     -6.470910000060     -7.044966813360    -12.776072266500
      74   25  2   0.42380     -6.028927200630     -7.219039515270    -13.656043799800
      75   25  2   0.42380     -7.215223184740     -7.699146403290    -12.641733339800
      76   26  1  -0.84760     10.318116099200     10.795194108700      3.912637219300
      77   26  2   0.42380     11.202227024200     11.242969992900      4.046221012210
      78   26  2   0.42380     10.423736980000     10.032704465800      3.274316160620
      79   27  1  -0.84760      8.030947942210     -0.708984283492     -0.574072069844
      80   27  2   0.42380      7.476043821560     -1.471567511800     -0.906560019678
      81   27  2   0.42380      7.661926172040     -0.382835844065      0.296244038590
      82   28  1  -0.84760     -9.020707733950      9.474409871610     -3.760714156830
      83   28  2   0.42380     -9.325818484260      8.532417344860     -3.900562323000
      84   28  2   0.42380     -9.816712058290     10.070286267800     -3.654373026300
      85   29  1  -0.84760     -0.294230486814     14.981021726900     -1.184627297830
      86   29  2   0.42380     -0.110892619531     14.181192247200     -0.613085497143
      87   29  2   0.42380     -0.112908802166     15.813467930000     -0.661028438427
      88   30  1  -0.84760     -0.993576010271    -18.469960808000    -17.935332033700
      89   30  2   0.42380     -1.032764107850    -17.736512430000    -17.256717437800
      90   30  2   0.42380     -0.194618107744    -19.044904045300    -17.758961560300
      91   31  1  -0.84760     11.669700314100      1.307680420850      8.132647086770
      92   31  2   0.42380     12.216444331200      0.885245754574      7.409722517710
      93   31  2   0.42380     10.989361853800      1.915914233580      7.723756871180
      94   32  1  -0.84760      3.752989111390    -18.695906111100      5.828501846800
      95   32  2   0.42380      4.611396182430    -19.075291344800      5.483242314290
      96   32  2   0.42380      3.043577839230    -18.786386272700      5.129539052880
      97   33  1  -0.84760    -13.398742347000     -9.288727332130    -11.906942013000
      98   33  2   0.42380    -12.952870129700     -9.531083045620    -11.045279855300
      99   33  2   0.42380    -12.770132787700     -9.456732713290    -12.666299777200
     100   34  1  -0.84760     -5.964796922920    -10.030825893200    -11.662845511700
     101   34  2   0.42380     -5.614788173690    -10.792815064500    -12.207699967800
     102   34  2   0.42380     -5.210495307430     -9.603018292690    -11.164839758900
     103   35  1  -0.84760    -13.798260467100     11.254672088600     10.862637125100
     104   35  2   0.42380    -14.451318063700     11.867599000600     11.307425137400
     105   35  2   0.42380    -13.294505174500     11.757392057600     10.160139268900
     106   36  1  -0.84760      7.153359142490    -16.362199796800    -13.824129548700
     107   36  2   0.42380      6.256763360720    -16.576458548700    -13.436561243300
     108   36  2   0.42380      7.223911693940    -16.758016946500    -14.739744708800
     109   37  1  -0.84760      1.170120053210      6.377719113760     18.860234851900
     110   37  2   0.42380      1.610285289750      6.091362368100     19.711266213600
     111   37  2   0.42380      1.738720446320      7.062917174500     18.405045648900
     112   38  1  -0.84760     12.058533123500      2.648425366340     -0.179860573846
     113   38  2   0.42380     11.526746295000      3.168205463110     -0.848464657079
     114   38  2   0.42380     13.007872179900      2.962432660200     -0.192301444297
     115   39  1  -0.84760    -19.085654237900    -18.165803730900    -13.948779549800
     116   39  2   0.42380    -19.976654001560    -17.746932177900    -14.123896777300
     117   39  2   0.42380    -19.213507663400    -19.119086540500    -13.675091065400
     118   40  1  -0.84760      4.842098651650     14.845165460100    -17.642632682900
     119   40  2   0.42380      4.663789898800     14.650251783200    -16.678156323800
     120   40  2   0.42380      4.054936026470     14.562619753100    -18.190850636800
     121   41  1  -0.84760      6.863966437410     16.784229945300     16.998300625100
     122   41  2   0.42380      6.004487504370     17.068677728300     17.423018675500
     123   41  2   0.42380      7.493869355070     16.461153081500     17.704589273200
     124   42  1  -0.84760    -12.100417480600    -12.438459284000     15.987391758300
     125   42  2   0.42380    -12.315948842600    -12.410727979000     15.011288686500
     126   42  2   0.42380    -11.360022865800    -11.795574667400     16.183644615900
     127   43  1  -0.84760     16.790170805600    -16.651460798000    -13.442356764100
     128   43  2   0.42380     15.963634530000    -17.160110562200    -13.201289963600
     129   43  2   0.42380     16.962961069300    -15.949492418500    -12.751427014400
     130   44  1  -0.84760    -13.302035013200      3.233600763770    -10.665285774500
     131   44  2   0.42380    -13.716416435100      4.124046477170    -10.477151597400
     132   44  2   0.42380    -12.373947100900      3.364804875300    -11.013765771500
     133   45  1  -0.84760     -7.461445228050      0.084172172449    -11.030416281700
     134   45  2   0.42380     -7.838784778300     -0.430223265566    -10.260343429800
     135   45  2   0.42380     -7.238826207060      1.012863987930    -10.733815062300
     136   46  1  -0.84760      3.850125514580      7.669299721240     12.133304370800
     137   46  2   0.42380      3.733681147680      8.554448600700     12.583806502400
     138   46  2   0.42380      4.695369291070      7.241171012010     12.453099252900
     139   47  1  -0.84760      0.194435449048     11.865440829300      3.930038649610
     140   47  2   0.42380      0.587886395122     12.571831877500      4.518433109110
     141   47  2   0.42380     -0.090911885928     11.086909470100      4.489025072670
     142   48  1  -0.84760      6.438391669320    -13.604439429400     10.376223053400
     143   48  2   0.42380      5.689810752930    -13.617140078600      9.713301259240
     144   48  2   0.42380      7.310935451870    -13.690811444500      9.895382931760
     145   49  1  -0.84760      9.972156912320     -9.921338022510    -18.363588637300
     146   49  2   0.42380      9.311400361100     -9.746297363350    -17.633683473800
     147   49  2   0.42380     10.106535917800    -10.907355893700    -18.462133249400
     148   50  1  -0.84760     -6.031926579880      1.553296619160    -18.023440018300
     149   50  2   0.42380     -6.038458364030      0.805166469530    -18.686959886100
     150   50  2   0.42380     -6.485416310120      1.257213752520    -17.182796217000
     151   51  1  -0.84760    -12.744295059100      6.482789759660     -8.247302324490
     152   51  2   0.42380    -12.249219167000      5.787974248830     -8.768964348170
     153   51  2   0.42380    -12.153894990000      7.277541205410     -8.106597321290
     154   52  1  -0.84760     10.191346178900     14.014131411000     16.785777737500
     155   52  2   0.42380      9.457970934960     14.412627328600     16.234994880800
     156   52  2   0.42380     10.451687048500     13.127740059000     16.402981443500
     157   53  1  -0.84760      9.563549448600     -2.286993583300     -2.974416120050
     158   53  2   0.42380     10.157967643400     -1.489756898200     -2.869151322490
     159   53  2   0.42380      8.638719356940     -1.984991892400     -3.205682806470
     160   54  1  -0.84760     -9.835034798210     -7.092470513120      3.342759786690
     161   54  2   0.42380     -9.107700488670     -7.306014492120      3.994974299880
     162   54  2   0.42380     -9.668400783200     -7.580623525110      2.486056954940
     163   55  1  -0.84760     -5.101269461680     -4.075096658580      1.967405326280
     164   55  2   0.42380     -5.546176784550     -3.215938469390      2.220199076220
     165   55  2   0.42380     -5.672061284340     -4.564678752580      1.308234583290
     166   56  1  -0.84760    -19.023401147500     -3.320119481640     -7.473733665890
     167   56  2   0.42380    -18.080811121500     -3.643437828290     -7.390131694880
     168   56  2   0.42380    -19.105579608000     -2.737947636050     -8.282635787800
     169   57  1  -0.84760     -9.575463956840     -6.914627613580     18.984474743500
     170   57  2   0.42380    -10.508117008100     -7.267807302370     19.058111645700
     171   57  2   0.42380     -9.494012411960     -6.074247944560     19.520317684800
     172   58  1  -0.84760      3.352305556370      9.970615387210     10.540302025700
     173   58  2   0.42380      2.410423251390     10.233084629500     10.749986599300
     174   58  2   0.42380      3.419611534050      8.973658790510     10.500964388800
     175   59  1  -0.84760     -6.312824727870      3.576215426190     18.032242807500
     176   59  2   0.42380     -5.803389986530      2.853674526420     17.564898296000
     177   59  2   0.42380     -6.503063261460      4.318771701490     17.390043867700
     178   60  1  -0.84760    -14.333480244900     -1.422576171940     -1.346882618080
     179   60  2   0.42380    -15.013809188600     -1.743074652390     -0.687767110407
     180   60  2   0.42380    -13.905427101100     -2.208576600060     -1.792947448630
     181   61  1  -0.84760     -1.661094140220     14.495702392600      9.825519801570
     182   61  2   0.42380     -2.098474106720     14.897915459000     10.629835295700
     183   61  2   0.42380     -0.745970524391     14.883396612600      9.714876412500
     184   62  1  -0.84760    -10.657135324600    -18.627638804400     -1.106402591480
     185   62  2   0.42380    -11.654195418200    -18.689164701400     -1.060732756220
     186   62  2   0.42380    -10.368276250400    -17.704088465200     -0.854182041048
     187   63  1  -0.84760    -12.324533631200     18.989622534300      2.809879681480
     188   63  2   0.42380    -12.107522466500     19.747753282500      2.194945601320
     189   63  2   0.42380    -11.521999454400     18.401482114900      2.910028282310
     190   64  1  -0.84760     -8.315899754930     14.493128514700    -16.130655176900
     191   64  2   0.42380     -9.019387034300     14.926486002900    -16.693955216900
     192   64  2   0.42380     -8.728749247830     14.150987440700    -15.286561117100
     193   65  1  -0.84760    -11.579626974100      9.417465680750    -14.270243439800
     194   65  2   0.42380    -12.513276649900      9.061084048820    -14.234321088500
     195   65  2   0.42380    -11.357247912200      9.857825085010    -13.400397966200
     196   66  1  -0.84760     -9.375188595630     -3.345871904000    -10.829028328700
     197   66  2   0.42380     -8.544236663660     -3.571948923160    -11.337366865700
     198   66  2   0.42380    -10.166106939200     -3.410310144580    -11.437547750800
     199   67  1  -0.84760     -1.950955495150    -17.868246563200     16.017490124100
     200   67  2   0.42380     -1.273143870930    -17.636544780600     15.319718180000
     201   67  2   0.42380     -1.535221799850    -17.793341240400     16.923886663800
     202   68  1  -0.84760    -17.875811603000    -14.637860805600     11.624793485600
     203   68  2   0.42380    -17.360703449500    -14.340492233500     12.428681240500
     204   68  2   0.42380    -17.271678634200    -14.651288965500     10.828023104400
     205   69  1  -0.84760    -11.038943992900     -4.937332312620     11.649598963100
     206   69  2   0.42380    -10.985787046900     -4.403336823420     10.805784317200
     207   69  2   0.42380    -10.307867983100     -4.653705854420     12.270150250500
     208   70  1  -0.84760     -2.690754456790    -15.734702711900      4.570478914490
     209   70  2   0.42380     -2.398755521200    -15.596304847700      5.516831202380
     210   70  2   0.42380     -3.688604072410    -15.789249455600      4.534136138620
     211   71  1  -0.84760     17.313015810400    -14.913082326300      1.412805816320
     212   71  2   0.42380     18.229607843400    -14.517507264900      1.470938560400
     213   71  2   0.42380     17.242074304200    -15.684277454500      2.045439499350
     214   72  1  -0.84760      6.155023929000      4.136789323860    -19.639189523500
     215   72  2   0.42380      6.749737252600      4.088100639380    -18.836727390600
     216   72  2   0.42380      6.093662730300      5.084765965940    -19.951559639560
     217   73  1  -0.84760     15.445714551900      7.621341738990    -16.714372869700
     218   73  2   0.42380     16.246362590100      8.032458621270    -17.150200390700
     219   73  2   0.42380     14.614129476100      8.018242896080    -17.102877352500
     220   74  1  -0.84760     -1.190652267150     -8.155060758000    -13.936227926900
     221   74  2   0.42380     -1.831476687200     -8.059285142060    -14.697917557900
     222   74  2   0.42380     -0.873246027722     -7.250394690780    -13.651917206000
     223   75  1  -0.84760     12.566656573800    -10.170017874000      3.977838965400
     224   75  2   0.42380     12.121720079700     -9.376415605850      3.562836608400
     225   75  2   0.42380     12.874423659800    -10.793367809300      3.259010558330
     226   76  1  -0.84760     -4.675636913220      7.764506477200     -6.627179265330
     227   76  2   0.42380     -5.142526133730      7.695651681050     -7.508810408620
     228   76  2   0.42380     -5.268487486600      8.232338900040     -5.971693932330
     229   77  1  -0.84760     13.875962341100      2.117570868270    -16.640415947700
     230   77  2   0.42380     14.594130323100      1.865890857250    -15.991654110300
     231   77  2   0.42380     12.984402350300      1.862417134550    -16.266227018300
     232   78  1  -0.84760      1.024589965440    -17.391224736000     -4.778824608640
     233   78  2   0.42380      0.168116351749    -17.192715510900     -5.255319138080
     234   78  2   0.42380      1.656559218720    -16.625155613400     -4.896097633060
     235   79  1  -0.84760    -19.571049393500    -10.872379398000     18.348648784600
     236   79  2   0.42380    -19.839722107360    -11.833936420800     18.291876742400
     237   79  2   0.42380    -19.102069846200    -10.708015165400     19.216429046700
     238   80  1  -0.84760      4.085711389630     -7.479772903700     -5.599999548530
     239   80  2   0.42380      4.709731950250     -8.212737175850     -5.870853227990
     240   80  2   0.42380      3.195935883690     -7.622335472830     -6.033560920090
     241   81  1  -0.84760     16.191318730000      5.509372877700     16.240901290700
     242   81  2   0.42380     16.416351746700      5.173911833800     15.326119333400
     243   81  2   0.42380     15.509334674800      4.908495753210     16.657847845700
     244   82  1  -0.84760     11.510731184300     -6.845277973630     -6.157959439820
     245   82  2   0.42380     11.353331723900     -6.394817226740     -7.036771436410
     246   82  2   0.42380     11.337489921600     -6.197841354700     -5.415791474090
     247   83  1  -0.84760    -13.269728543900      5.282640232120      2.985151977400
     248   83  2   0.42380    -13.842572261100      5.468306322830      3.783511657290
     249   83  2   0.42380    -12.854615702900      4.377420240680      3.076026046040
     250   84  1  -0.84760      7.723509966420     13.575041596000     -3.756901891120
     251   84  2   0.42380      8.552024543600     13.261372434900     -3.293032024930
     252   84  2   0.42380      7.934974622870     14.383106882000     -4.306732040090
     253   85  1  -0.84760    -19.678389786500    -11.944723775800      3.077899746530
     254   85  2   0.42380    -20.639184701360    -12.202952791600      2.976949724250
     255   85  2   0.42380    -19.386156655500    -12.109544619500      4.019936840610
     256   86  1  -0.84760      8.028217799470     10.893947389600     -5.609559349560
     257   86  2   0.42380      7.910552580040     10.804633706800     -6.598588147010
     258   86  2   0.42380      8.211747521960     11.849953165000     -5.380714864480
     259   87  1  -0.84760      7.002840547160      8.730058600090     11.035809365400
     260   87  2   0.42380      7.716363707710      9.226412172070     10.541321922700
     261   87  2   0.42380      6.166035728430      9.277328372870     11.051730770900
     262   88  1  -0.84760     -4.321282008840     17.593682307100     -7.734551937010
     263   88  2   0.42380     -4.134858611180     16.661827735300     -8.045828942090
     264   88  2   0.42380     -4.108968687180     17.668375172100     -6.760209066480
     265   89  1  -0.84760     -1.701262594110      2.027183298230     -9.569269351000
     266   89  2   0.42380     -2.606789741580      1.957968095380     -9.987873986530
     267   89  2   0.42380     -1.651571514960      2.860194455400     -9.018249198300
     268   90  1  -0.84760     18.800284018100     17.347167359800     19.555980379100
     269   90  2   0.42380     19.469670642500     17.542771553700     20.272681534660
     270   90  2   0.42380     19.042141172000     16.491431038100     19.098574142900
     271   91  1  -0.84760     11.287086854300     16.102962656500     18.685944286300
     272   91  2   0.42380     11.009298903400     15.411790884800     18.018774565500
     273   91  2   0.42380     10.812856513700     15.940559946100     19.551236689800
     274   92  1  -0.84760    -15.806223186300     16.907038843700     -5.482265328160
     275   92  2   0.42380    -16.086278233400     17.601403565600     -4.819372573910
     276   92  2   0.42380    -15.370035929600     17.350464337300     -6.265281617070
     277   93  1  -0.84760    -10.759529683300     -7.773005023020    -17.565997137300
     278   93  2   0.42380    -10.995905382300     -6.836397033660    -17.307362253400
     279   93  2   0.42380    -11.059389838900     -8.402496183460    -16.849181424600
     280   94  1  -0.84760      1.056389612700    -18.227099813000     -1.450488634880
     281   94  2   0.42380      0.737322925558    -18.442694618900     -2.373372879420
     282   94  2   0.42380      1.248682603100    -17.247980951100     -1.384536680980
     283   95  1  -0.84760     -8.635615089230     -7.422748882040      5.624173957380
     284   95  2   0.42380     -8.435548236580     -7.297782508670      6.595954107410
     285   95  2   0.42380     -9.605989198240     -7.634710885480      5.508216216500
     286   96  1  -0.84760    -16.681829313600     -0.220035926159     -2.980093437970
     287   96  2   0.42380    -15.884606834200     -0.644335152559     -2.550667676370
     288   96  2   0.42380    -16.686642166300      0.759605475654     -2.779395754120
     289   97  1  -0.84760    -14.131706499000     -8.012416504600      6.878625941110
     290   97  2   0.42380    -15.015902986300     -8.437193850650      6.684304613810
     291   97  2   0.42380    -14.220630695100     -7.017852799490      6.824445466520
     292   98  1  -0.84760     -4.161802188480    -12.510993999600     -0.478077679921
     293   98  2   0.42380     -4.969908594470    -13.090517232900     -0.583514195184
     294   98  2   0.42380     -3.337957755660    -13.056864047900     -0.630741496476
     295   99  1  -0.84760    -17.750838526000    -18.056593588900      1.586111869920
     296   99  2   0.42380    -18.019929650100    -17.993079934500      2.547130070920
     297   99  2   0.42380    -18.059898933200    -18.930312707100      1.210483639880
     298  100  1  -0.84760     -0.739247042970     16.620815371600      7.163413162080
     299  100  2   0.42380     -1.491338141720     15.964679680400      7.101405631280
     300  100  2   0.42380      0.009926624020     16.220222847000      7.690920930700
     301  101  1  -0.84760    -15.653995219700     13.168211745000    -12.880913094000
     302  101  2   0.42380    -15.423565001900     12.909630554900    -11.942809857300
     303  101  2   0.42380    -16.000593650300     12.368693257300    -13.371463515100
     304  102  1  -0.84760     17.756572624800    -15.689996524800     -9.935041270030
     305  102  2   0.42380     17.985526218500    -16.276696768600     -9.158276778100
     306  102  2   0.42380     18.303562484800    -15.958294702400    -10.728021837900
     307  103  1  -0.84760    -13.988656416500    -13.327676942900     17.982326000600
     308  103  2   0.42380    -13.187722318000    -13.401546722500     17.388147723100
     309  103  2   0.42380    -14.425194112700    -12.438637974300     17.844323999600
     310  104  1  -0.84760     11.941079272500      9.122143662370    -15.182577547500
     311  104  2   0.42380     12.187690532400      9.774877525570    -14.466252628000
     312  104  2   0.42380     12.768102848900      8.817625259240    -15.655124419500
     313  105  1  -0.84760     15.355888469600    -10.987716339600     12.048816398600
     314  105  2   0.42380     14.787711870200    -10.194511612500     11.829723694800
     315  105  2   0.42380     16.255024190100    -10.678356707700     12.358415452800
     316  106  1  -0.84760     17.021157520200     15.673717763000      8.807959590710
     317  106  2   0.42380     17.562803738300     16.471736726900      9.072128301380
     318  106  2   0.42380     17.239994828500     15.419346757600      7.865937497500
     319  107  1  -0.84760     -4.889547187560    -17.044203392600     17.138891197300
     320  107  2   0.42380     -5.354896054390    -17.599358975900     17.828276946100
     321  107  2   0.42380     -4.432551214800    -17.643293914700     16.481437604100
     322  108  1  -0.84760     13.897937775800     16.693881978600    -12.135478462300
     323  108  2   0.42380     13.113706567700     16.505106730300    -11.544424050300
     324  108  2   0.42380     14.100216498500     17.673058968900    -12.118281367200
     325  109  1  -0.84760     10.922068258800     19.070172348000    -17.629989867100
     326  109  2   0.42380     11.738975224400     19.563340993700    -17.330911789500
     327  109  2   0.42380     10.981941409200     18.890614767000    -18.611913632500
     328  110  1  -0.84760    -14.204605824600     10.161196392400     -0.474777039189
     329  110  2   0.42380    -14.408782351100     11.117188682700     -0.264086064335
     330  110  2   0.42380    -14.153648861100     10.041951655900     -1.466333432290
     331  111  1  -0.84760     16.233344682800     17.772169673300      3.753001809450
     332  111  2   0.42380     15.813500924400     18.632249227300      4.042819647570
     333  111  2   0.42380     16.342908774800     17.773052726800      2.759022468630
     334  112  1  -0.84760     -1.213422572770     -0.889530759959      5.364826676400
     335  112  2   0.42380     -0.417927639839     -0.865075257318      5.970293223850
     336  112  2   0.42380     -1.080196640190     -0.243549836547      4.613188799840
     337  113  1  -0.84760      1.090478673100    -11.060920631200      1.487619376690
     338  113  2   0.42380      1.239022700450    -11.593092767800      2.321122519400
     339  113  2   0.42380      0.919793838985    -10.105419047700      1.728209092620
     340  114  1  -0.84760    -11.861009311700     -6.709592023530     -9.848946324150