LAMMPS Atom File

         4500 atoms
         3000 bonds
         1500 angles
           0 dihedrals
           0 impropers

           2 atom types
           1 bond types
           1 angle types

         0.0  38.2792916789 xlo xhi
         0.0  38.2792916789 ylo yhi
         0.0  38.2792916789 zlo zhi

Masses

         1   15.9994
         2   1.00794

Atoms

       1    1  1  -0.84760    -16.758475722100      3.889129070210    -17.945907266000
       2    1  2   0.42380    -16.932273237900      3.698014779480    -16.979848390200
       3    1  2   0.42380    -16.377604363200      3.074627841120    -18.383542680200
       4    2  1  -0.84760    -15.819506467500    -11.079884458300    -10.879133918900
       5    2  2   0.42380    -16.428803998700    -11.723889943100    -11.341749800500
       6    2  2   0.42380    -16.288322802200    -10.204732196000    -10.759468710200
       7    3  1  -0.84760     -9.376603002780     16.990413973700     -8.704603200110
       8    3  2   0.42380     -8.915476774040     16.277422176600     -9.232812721510
       9    3  2   0.42380     -9.542032168500     17.784346868000     -9.289670504380
      10    4  1  -0.84760     17.318325038200    -12.325274104000      5.893628643140
      11    4  2   0.42380     18.075429990600    -11.722205376700      6.144826177400
      12    4  2   0.42380     16.450960021300    -11.848494504300      6.036314104010
      13    5  1  -0.84760     -2.065058852110      8.031089122890     -9.623522605730
      14    5  2   0.42380     -2.438704654970      8.870090986880    -10.019078779000
      15    5  2   0.42380     -1.162642998260      8.218594702780     -9.235595699950
      16    6  1  -0.84760     -7.218620534350    -13.938001836400      4.936275597760
      17    6  2   0.42380     -7.033187797280    -13.101739452400      5.452298780450
      18    6  2   0.42380     -6.551167702380    -14.028488560700      4.197141733140
      19    7  1  -0.84760    -14.283089755100     -5.470068171510     17.606093386900
      20    7  2   0.42380    -13.285666770600     -5.495817232800     17.673058868600
      21    7  2   0.42380    -14.553660604700     -4.797397502360     16.917394914200
      22    8  1  -0.84760     15.406651666300    -18.629665281700    -13.728771138000
      23    8  2   0.42380     14.942790473100    -17.793040966600    -13.437407878700
      24    8  2   0.42380     16.015463442800    -18.944159070200    -13.000456729300
      25    9  1  -0.84760    -12.738969398400     -1.050343375940     11.218908152700
      26    9  2   0.42380    -12.533898023000     -1.070398543770     10.240366625100
      27    9  2   0.42380    -11.954867716400     -0.679073664221     11.716244410700
      28   10  1  -0.84760     -8.881862541780    -15.951572413000      1.122180205220
      29   10  2   0.42380     -9.798705184560    -15.585844045400      0.962047979975
      30   10  2   0.42380     -8.570188777170    -16.438787844900      0.306410269941
      31   11  1  -0.84760     -0.364677179011      9.253065742430     10.801998895900
      32   11  2   0.42380     -0.376545687013     10.216372300300     10.533857862100
      33   11  2   0.42380     -0.522338935786      9.179217520290     11.786726884000
      34   12  1  -0.84760    -15.248432783800      9.315220104940     11.736263337200
      35   12  2   0.42380    -14.870760443000      9.694705913590     10.891660398500
      36   12  2   0.42380    -14.542429486700      8.788888833000     12.210114301700
      37   13  1  -0.84760    -15.593611382000     12.368030560900      9.445381019160
      38   13  2   0.42380    -15.408040022900     12.989843000900      8.684517982820
      39   13  2   0.42380    -16.046357939600     11.545616775900      9.100916041460
      40   14  1  -0.84760      4.678949227070      0.300574963006     12.663088502900
      41   14  2   0.42380      4.367629822840      0.987464605663     12.006382444300
      42   14  2   0.42380      5.665235200480      0.393042737022     12.799798741800
      43   15  1  -0.84760     -8.852446577820    -15.053539048600     -3.813081544820
      44   15  2   0.42380     -9.594319875860    -15.685162483700     -4.038194507360
      45   15  2   0.42380     -8.253484585450    -14.946502025600     -4.606673132100
      46   16  1  -0.84760    -15.732251523700     10.319058526000     -2.743802616200
      47   16  2   0.42380    -14.857874333200      9.833866073200     -2.736535394770
      48   16  2   0.42380    -15.586527490700     11.272592292300     -2.480102288720
      49   17  1  -0.84760      1.170348908370      2.965234408240     15.412196653100
      50   17  2   0.42380      2.044751666520      3.031395013970     14.931527753800
      51   17  2   0.42380      1.303535482730      2.491442086930     16.282703501300
      52   18  1  -0.84760     -9.518222774340      5.992197497860      6.431918354100
      53   18  2   0.42380     -9.550018241200      6.940204798680      6.115262064310
      54   18  2   0.42380    -10.166051557500      5.870037323520      7.183845717330
      55   19  1  -0.84760      9.405753628500     -0.785548696415     15.240489544800
      56   19  2   0.42380      9.776344808580     -0.968450450877     16.151098750500
      57   19  2   0.42380      8.827197099130     -1.550097869760     14.956347144100
      58   20  1  -0.84760     -2.186874974630      0.165741156706     -6.527959514100
      59   20  2   0.42380     -1.412120723560      0.539167772659     -7.038163799600
      60   20  2   0.42380     -2.997579539480      0.726844925206     -6.695054306070
      61   21  1  -0.84760     -8.985726381400     17.133241792600     10.906449440100
      62   21  2   0.42380     -8.094798941400     17.583064266700     10.843935134000
      63   21  2   0.42380     -8.893405375140     16.280953557500     11.421310194100
      64   22  1  -0.84760      8.010470880580     -8.541473709790     15.140401181000
      65   22  2   0.42380      7.255710778270     -8.895915858810     14.588397602200
      66   22  2   0.42380      8.503723737520     -7.843302725100     14.621499557100
      67   23  1  -0.84760    -18.071536183900     10.132367705100    -16.347810890800
      68   23  2   0.42380    -17.980554996900      9.149114804880    -16.189899023900
      69   23  2   0.42380    -17.394353652200     10.622201103200    -15.798732516700
      70   24  1  -0.84760     -9.544476562520    -14.461720695900    -18.535851109200
      71   24  2   0.42380     -8.845092525460    -13.971155690700    -18.016035810800
      72   24  2   0.42380    -10.451462937700    -14.174219260300    -18.228087174000
      73   25  1  -0.84760     14.256530131100     -7.356856235160      5.117905459000
      74   25  2   0.42380     14.489248639500     -6.410688356600      4.892942258810
      75   25  2   0.42380     14.196246169200     -7.458202316070      6.110928528120
      76   26  1  -0.84760     -5.088336929540     -6.337111437180    -12.373414349000
      77   26  2   0.42380     -5.944492258170     -5.825078281650    -12.303987402500
      78   26  2   0.42380     -5.034777682750     -6.999800102730    -11.626437013600
      79   27  1  -0.84760      6.641234026000      0.241757371199      0.747641832320
      80   27  2   0.42380      6.739674239260      0.095665213180      1.732002846270
      81   27  2   0.42380      6.373120180780     -0.615761350914      0.308578502915
      82   28  1  -0.84760     -9.530213732770      7.355391390810     -2.423236200360
      83   28  2   0.42380    -10.025736839900      8.184333907390     -2.682680133540
      84   28  2   0.42380     -9.267683114090      7.411720271190     -1.459958082940
      85   29  1  -0.84760      1.783466482610     14.527017737600     -0.638943030981
      86   29  2   0.42380      2.159749581130     14.875851776400      0.219384321001
      87   29  2   0.42380      0.829416366874     14.813860526800     -0.725600927113
      88   30  1  -0.84760     -2.237182005890    -15.626923272800    -14.247530623900
      89   30  2   0.42380     -2.045535161080    -16.296038874900    -14.965552766900
      90   30  2   0.42380     -2.698938611070    -14.834134147600    -14.645357521700
      91   31  1  -0.84760     11.023856257600      0.538824534575      8.305402752770
      92   31  2   0.42380     10.859606087900      1.489573616820      8.042537646020
      93   31  2   0.42380     10.487028547400     -0.066878921580      7.718087392240
      94   32  1  -0.84760      2.830878525690    -17.156050859000      5.860710085310
      95   32  2   0.42380      2.308999792920    -17.862681864700      6.338533494070
      96   32  2   0.42380      3.701293401530    -17.537588923700      5.549572416300
      97   33  1  -0.84760    -16.558966703200     -7.899620921750     -8.391684083720
      98   33  2   0.42380    -17.060920984700     -8.670044387620     -7.998632455450
      99   33  2   0.42380    -16.819050329000     -7.056981993930     -7.920179953390
     100   34  1  -0.84760     -6.459549356100     -7.684167296890     -9.864874215250
     101   34  2   0.42380     -6.949781606860     -7.204931880410     -9.136859273150
     102   34  2   0.42380     -6.897119889520     -8.566857307780    -10.036310421900
     103   35  1  -0.84760    -13.378148433800     10.934709885300     10.601420880000
     104   35  2   0.42380    -13.732265814200     11.501355137500      9.857435638800
     105   35  2   0.42380    -13.780933519300     11.231562566100     11.467239949300
     106   36  1  -0.84760      8.674109224100    -15.164488510600    -13.494025237500
     107   36  2   0.42380      8.061077471310    -14.738289727600    -14.159267048800
     108   36  2   0.42380      8.340263208150    -16.080669668700    -13.272307121100
     109   37  1  -0.84760     -0.696330691749      8.694818917700    -18.442387746000
     110   37  2   0.42380      0.081512629457      8.219748466010    -18.853809468300
     111   37  2   0.42380     -1.402439007700      8.029757692670    -18.199273342600
     112   38  1  -0.84760      8.067353990880      3.554529904380     -0.610397759961
     113   38  2   0.42380      7.466406948010      3.449752170880     -1.402789252990
     114   38  2   0.42380      7.697824507170      3.033979713150      0.159326514752
     115   39  1  -0.84760     18.162205889900    -17.015467628200    -12.859897323800
     116   39  2   0.42380     17.758498493800    -17.929945468900    -12.832499930300
     117   39  2   0.42380     18.638203551500    -16.887183880800    -13.729937269000
     118   40  1  -0.84760      4.234846641250     16.587611323700     18.121127977100
     119   40  2   0.42380      4.851539130740     17.223879119500     18.584651078500
     120   40  2   0.42380      3.501574199570     16.319322973300     18.745894243300
     121   41  1  -0.84760      6.450291476200     13.913997626300     16.864361486100
     122   41  2   0.42380      5.603179867020     13.986528850400     16.337919520600
     123   41  2   0.42380      6.624290595090     12.954357426600     17.085302640500
     124   42  1  -0.84760    -11.736217381100    -12.006905067000     15.484982436300
     125   42  2   0.42380    -12.434789040800    -11.325527280700     15.703435975200
     126   42  2   0.42380    -11.478452570400    -11.923204138900     14.522407007100
     127   43  1  -0.84760     13.723915535700    -16.863444571200    -10.752547556200
     128   43  2   0.42380     13.133826449000    -16.875641403500     -9.945301554620
     129   43  2   0.42380     14.681222697400    -16.831987339000    -10.465191608500
     130   44  1  -0.84760    -12.142517066100      2.210246630800     -7.990426915250
     131   44  2   0.42380    -11.943985646100      3.070429268750     -8.460183346430
     132   44  2   0.42380    -12.617645933700      2.401465066660     -7.131539222400
     133   45  1  -0.84760     -4.604962301800     -1.762434677010    -10.763341338600
     134   45  2   0.42380     -4.273385181780     -1.731722514110     -9.820413251950
     135   45  2   0.42380     -4.185993677970     -1.021559753790    -11.288288612500
     136   46  1  -0.84760      5.475338762780      8.948819127720     13.298157712600
     137   46  2   0.42380      5.888875026340      9.238834436080     12.435094053500
     138   46  2   0.42380      5.051333368230      8.050967766340     13.179488600100
     139   47  1  -0.84760     -1.695388153260     13.192103519800      4.667590022620
     140   47  2   0.42380     -0.982048269831     13.433430525000      4.009632966830
     141   47  2   0.42380     -1.450168613050     12.338343218600      5.126894632960
     142   48  1  -0.84760      8.316321643000    -12.007336078000     11.273356637000
     143   48  2   0.42380      7.839764678210    -12.588162659900     11.933306590500
     144   48  2   0.42380      8.893913302850    -12.574491577200     10.686225889900
     145   49  1  -0.84760     11.342608056700    -11.871322917300    -17.388230617000
     146   49  2   0.42380     10.937561732400    -12.459654970000    -16.688371437600
     147   49  2   0.42380     11.523318390100    -10.967577575400    -17.000173749500
     148   50  1  -0.84760     -5.368975613820      0.001578974577    -18.606085660100
     149   50  2   0.42380     -4.946085047190      0.905225956690    -18.673803459600
     150   50  2   0.42380     -4.908267746480     -0.529591793367    -17.895025974700
     151   51  1  -0.84760    -10.582175516000      4.467736447440     -8.896993182540
     152   51  2   0.42380    -10.166459704800      5.118870491180     -8.262009071390
     153   51  2   0.42380     -9.949753750670      4.286520361650     -9.650122282360
     154   52  1  -0.84760      9.820819029860     13.783708810900     16.662952938500
     155   52  2   0.42380      9.878177829140     14.728269054800     16.986242149300
     156   52  2   0.42380      9.309966613560     13.235273717500     17.324956531500
     157   53  1  -0.84760      8.967109063180     -2.762358117920     -2.485436597110
     158   53  2   0.42380      9.121968803260     -2.278214283820     -1.624261116270
     159   53  2   0.42380      8.570859267450     -3.660776030270     -2.296144879990
     160   54  1  -0.84760     -9.713696114820     -6.506346505960      4.690919475770
     161   54  2   0.42380     -9.052061947250     -7.019236691700      5.237896518860
     162   54  2   0.42380     -9.228659965220     -5.952512201030      4.014156964790
     163   55  1  -0.84760     -6.385758704020     -4.487613587540     -2.381147476880
     164   55  2   0.42380     -6.492340742810     -4.176433808880     -1.436791921820
     165   55  2   0.42380     -6.865311996050     -3.860436879610     -2.994888478550
     166   56  1  -0.84760     16.692031217300     -4.011587346130     -7.198397100350
     167   56  2   0.42380     16.532264378500     -4.055964507940     -6.212240305150
     168   56  2   0.42380     17.224382098000     -3.192795354940     -7.413297577190
     169   57  1  -0.84760     -7.363260444340     -8.675149120130     16.458849271400
     170   57  2   0.42380     -7.744838619500     -9.480448166520     16.912602003800
     171   57  2   0.42380     -7.214689738470     -8.877108531980     15.490789799400
     172   58  1  -0.84760      2.859023191600      8.681963611530     10.163482386500
     173   58  2   0.42380      2.091847699890      8.044096969980     10.095896052700
     174   58  2   0.42380      3.019418886470      9.106036647960      9.272171396500
     175   59  1  -0.84760     -7.822493791330      2.656965821560     14.703374766000
     176   59  2   0.42380     -6.842020945160      2.831004693390     14.611813480500
     177   59  2   0.42380     -7.977739750400      2.008447972800     15.448574935100
     178   60  1  -0.84760    -11.003138126600      1.273295334100     -3.294682382220
     179   60  2   0.42380    -11.828972333400      1.322893388470     -2.732954782960
     180   60  2   0.42380    -11.222810220500      0.849986434730     -4.173632748760
     181   61  1  -0.84760     -0.619370420393     12.306365772300     11.873581182000
     182   61  2   0.42380     -0.801957739710     12.637942657600     12.799172150000
     183   61  2   0.42380     -0.357499261113     13.074898839900     11.289817171600
     184   62  1  -0.84760     -9.573133836410    -18.421966264500     -1.760956838940
     185   62  2   0.42380     -8.829929510260    -17.756634418000     -1.690381605210
     186   62  2   0.42380     -9.273522608110    -19.297760949862     -1.382516908430
     187   63  1  -0.84760     -9.517586335670    -18.360190280500      3.603519477740
     188   63  2   0.42380    -10.467924987300    -18.063272126200      3.696772129090
     189   63  2   0.42380     -9.493478438740    -19.332177325962      3.369724711630
     190   64  1  -0.84760     -8.639480160370     14.925821648300    -16.365800264700
     191   64  2   0.42380     -9.117837540370     14.092867970700    -16.643941214400
     192   64  2   0.42380     -9.006148103100     15.244708529800    -15.491806113400
     193   65  1  -0.84760     -8.892343527300     -6.339908755110    -10.930319629500
     194   65  2   0.42380     -8.412513846560     -6.618297838530    -11.762343064100
     195   65  2   0.42380     -8.269560592710     -6.400513846070    -10.150275759300
     196   66  1  -0.84760      1.216933077050    -16.644335535600     15.210728720300
     197   66  2   0.42380      1.029357179780    -17.597517135600     15.447920878900
     198   66  2   0.42380      2.201537953170    -16.518634678500     15.089268716800
     199   67  1  -0.84760    -18.995459393500    -14.623602423600     12.314199393800
     200   67  2   0.42380    -19.199908428762    -15.588858313400     12.151467530700
     201   67  2   0.42380    -18.264035768100    -14.329490563300     11.698961477400
     202   68  1  -0.84760     -9.098111461040     -0.936311745880      6.855094904110
     203   68  2   0.42380     -9.014754734060     -1.316346576360      5.933886358950
     204   68  2   0.42380     -8.268638189060     -0.425616563919      7.081290664910
     205   69  1  -0.84760     -4.109642393590    -13.657195057600      2.144928474410
     206   69  2   0.42380     -4.486089280890    -13.252698358400      1.311459721930
     207   69  2   0.42380     -3.243813327900    -13.210597489300      2.370518015210
     208   70  1  -0.84760     15.712496478900    -13.793669710900      3.945686864190
     209   70  2   0.42380     16.225331077000    -12.940648468400      4.042410361250
     210   70  2   0.42380     15.996215253500    -14.435742474200      4.657899068200
     211   71  1  -0.84760     11.537974285300      1.396859235660     18.759825044100
     212   71  2   0.42380     11.779666015300      0.914924608071     19.602038866362
     213   71  2   0.42380     10.671993108100      1.040707291730     18.408780326800
     214   72  1  -0.84760     -0.043367371984     -5.616461650340      5.470561411440
     215   72  2   0.42380      0.038888420768     -5.916400926280      6.420966806680
     216   72  2   0.42380      0.619766105629     -4.889607884480      5.291850488630
     217   73  1  -0.84760     15.735898895300      7.021442280260    -16.582663498400
     218   73  2   0.42380     14.977111625300      6.911827434750    -17.224712144900
     219   73  2   0.42380     16.521069682300      6.490090774790    -16.900739610300
     220   74  1  -0.84760     -0.775109705410     -9.453878426750    -15.776902885000
     221   74  2   0.42380     -0.343882864916     -9.444483278460    -16.679097511100
     222   74  2   0.42380     -0.834096275676     -8.519357031800    -15.425918060700
     223   75  1  -0.84760     10.495821915100    -10.490945835700      3.926381019040
     224   75  2   0.42380      9.963277135520     -9.648387264350      4.006948454280
     225   75  2   0.42380      9.886971383550    -11.279575918900      4.012192569820
     226   76  1  -0.84760     -2.331419645010      4.706954419080    -10.558165409700
     227   76  2   0.42380     -2.341200370890      5.680045654470    -10.327952931800
     228   76  2   0.42380     -1.921943314230      4.190600704190     -9.806029799860
     229   77  1  -0.84760      8.670450080400      5.119058236850    -18.181812950300
     230   77  2   0.42380      8.047296066020      5.747434202970    -17.716170684700
     231   77  2   0.42380      9.534570098260      5.074104552750    -17.680538812700
     232   78  1  -0.84760     -1.347986713730    -16.403102688800     -6.803731358170
     233   78  2   0.42380     -1.460917140880    -15.972876827000     -5.908101732470
     234   78  2   0.42380     -1.713352619800    -15.799148186800     -7.512072176000
     235   79  1  -0.84760     18.121616027700    -12.075699903000    -16.391524873000
     236   79  2   0.42380     18.760972843000    -11.314795252300    -16.502190926300
     237   79  2   0.42380     17.350663257100    -11.783633100500    -15.825548894500
     238   80  1  -0.84760      4.886334034780     -5.956722368800     -5.489542297940
     239   80  2   0.42380      4.267453750910     -5.203027760130     -5.710747250650
     240   80  2   0.42380      5.431287505600     -5.715778974620     -4.686440812800
     241   81  1  -0.84760     15.461240561000      6.064022154970     12.176530889100
     242   81  2   0.42380     15.755367575700      5.139041988240     12.417157135300
     243   81  2   0.42380     15.225830489200      6.096825357480     11.205188494300
     244   82  1  -0.84760     15.837971358900    -18.498172495200     18.587752356100
     245   82  2   0.42380     16.551372856700    -18.421849333100     17.891165622200
     246   82  2   0.42380     15.298739348500    -19.324156368262     18.423498040200
     247   83  1  -0.84760      9.377886701120     -6.559968127460     -6.859560804080
     248   83  2   0.42380     10.012376694000     -6.642522234800     -7.628070575170
     249   83  2   0.42380      9.804186298940     -6.023038183990     -6.131567061870
     250   84  1  -0.84760    -14.301966105000      6.359768337910      2.204758016070
     251   84  2   0.42380    -13.931377594700      5.954006682650      1.369281125210
     252   84  2   0.42380    -13.591787440400      6.899787346690      2.656450095380
     253   85  1  -0.84760      7.505489610350     11.657530565500      0.184792461355
     254   85  2   0.42380      7.766497262970     10.705205388300      0.342753728825
     255   85  2   0.42380      6.828523366930     11.935061376100      0.866476665694
     256   86  1  -0.84760     16.278173505300    -11.040513438800      2.168211024120
     257   86  2   0.42380     16.589244323200    -10.342652376800      2.813365954670
     258   86  2   0.42380     17.059356990600    -11.385036517300      1.647580434630
     259   87  1  -0.84760      8.428500628920     11.217517314200     -4.056968001820
     260   87  2   0.42380      7.985403871100     11.460202633500     -3.193967944450
     261   87  2   0.42380      8.721559930180     12.050165081400     -4.526876441670
     262   88  1  -0.84760      6.207248902760      9.167189740750     10.178732150100
     263   88  2   0.42380      6.195716306900      8.171286912850     10.268423602400
     264   88  2   0.42380      5.301735850370      9.487273391100      9.900177723180
     265   89  1  -0.84760     -2.938555044410     17.279663832600    -10.363231059300
     266   89  2   0.42380     -3.851242605840     17.245384786600    -10.770448890800
     267   89  2   0.42380     -2.456801535160     18.091631137400    -10.692810567500
     268   90  1  -0.84760      0.615050345940      4.322722136620     -8.291507583130
     269   90  2   0.42380      1.255943895280      4.138737628060     -7.546252486520
     270   90  2   0.42380      0.982845733103      5.045476801560     -8.876616331560
     271   91  1  -0.84760    -19.046304436700     17.743370742700     18.192713655400
     272   91  2   0.42380    -18.844571975900     16.865111326200     17.759165028900
     273   91  2   0.42380    -19.938613565262     17.696297926700     18.641677539300
     274   92  1  -0.84760     10.922730156900     15.583145420400     18.082746221400
     275   92  2   0.42380     10.439300819400     15.731981163500     18.945384034900
     276   92  2   0.42380     11.700586310100     14.974022110900     18.237370277500
     277   93  1  -0.84760    -16.173409392700    -18.911117487500     -8.229799209480
     278   93  2   0.42380    -15.811204581800    -18.180483118200     -8.808574721510
     279   93  2   0.42380    -17.000091998900    -18.590960983400     -7.767094463920
     280   94  1  -0.84760     -8.696141528470     -7.774930177270    -16.109121191800
     281   94  2   0.42380     -8.626893776700     -6.965711494550    -16.692533458000
     282   94  2   0.42380     -8.960587158310     -7.498153167270    -15.185290582000
     283   95  1  -0.84760     -6.680243502310     -7.852725024090      5.858169929650
     284   95  2   0.42380     -7.020922519230     -8.729871506050      6.196625032460
     285   95  2   0.42380     -6.044221321320     -8.011167731490      5.102940366030
     286   96  1  -0.84760    -16.269965719900      2.178302060750     -2.040569854680
     287   96  2   0.42380    -16.683720445600      1.806074752940     -1.209754677700
     288   96  2   0.42380    -16.339520152900      3.175818607580     -2.029482941400
     289   97  1  -0.84760    -14.264060693900     -6.840846654490      7.060908524430
     290   97  2   0.42380    -13.594559829600     -6.655774074820      7.780294883020
     291   97  2   0.42380    -14.780577661400     -7.665769319390      7.290501249170
     292   98  1  -0.84760     -4.596229696300     -9.725298933200      0.656815052731
     293   98  2   0.42380     -4.154309779130     -9.265887689880     -0.113670570962
     294   98  2   0.42380     -5.272176397930    -10.377155477200      0.313043176888
     295   99  1  -0.84760     19.023618784400    -14.354997800600     -0.667526766499
     296   99  2   0.42380     18.312455256100    -13.922749889200     -1.221970793570
     297   99  2   0.42380     18.778603468200    -15.309224950400     -0.496009882554
     298  100  1  -0.84760    -14.464412886100     12.245617371100     -9.814152211550
     299  100  2   0.42380    -15.142604591100     11.796984500800     -9.232100187340
     300  100  2   0.42380    -13.545704108800     11.986845895600     -9.515804250320
     301  101  1  -0.84760     15.919595506900    -14.750456978000     -7.666208741720
     302  101  2   0.42380     14.925805307500    -14.861365695600     -7.657247935210
     303  101  2   0.42380     16.154182785000    -13.882541030300     -8.104033725710
     304  102  1  -0.84760    -11.857008531800    -15.193553760200     17.060481186200
     305  102  2   0.42380    -10.927141614400    -15.532861474200     17.202670466000
     306  102  2   0.42380    -11.825399169200    -14.220744755900     16.831039495600
     307  103  1  -0.84760     15.649349505900      9.463022008770    -14.166443694600
     308  103  2   0.42380     15.353158111800      8.828686436450    -14.880508845500
     309  103  2   0.42380     16.595447969900      9.261391716650    -13.912981820600
     310  104  1  -0.84760     16.092711606600     -8.065613778460     10.664158492000
     311  104  2   0.42380     15.775272226400     -7.318764086350     10.079823162500
     312  104  2   0.42380     17.018163208200     -7.866410624890     10.986427691200
     313  105  1  -0.84760     14.320589709700     16.945735338200      9.018645612220
     314  105  2   0.42380     13.512083201500     17.250936703800      8.515486241330
     315  105  2   0.42380     14.036603502900     16.393177181600      9.802247116740
     316  106  1  -0.84760     -6.711124856760    -19.108984945200    -17.199600922700
     317  106  2   0.42380     -6.449402257450    -18.216504199600    -16.832205495700
     318  106  2   0.42380     -6.814558656060    -19.761238228762    -16.448690073600
     319  107  1  -0.84760      0.132554709510      7.482885148990     -3.799924224320
     320  107  2   0.42380     -0.759164733650      7.030609696680     -3.783091223200
     321  107  2   0.42380      0.814676962542      6.890941091550     -3.370609113030
     322  108  1  -0.84760     11.612500300100     16.731559351900    -13.825798826900
     323  108  2   0.42380     12.348721623900     16.706357956100    -13.149527393200
     324  108  2   0.42380     10.729422278600     16.682634847400    -13.359130207100
     325  109  1  -0.84760     15.061144550000     14.421218534700    -18.141879257000
     326  109  2   0.42380     15.594727285000     15.214653855300    -17.849048492100
     327  109  2   0.42380     14.197377116200     14.729200009500    -18.540694040500
     328  110  1  -0.84760    -13.746069150600      9.833184390080     -0.459450835339
     329  110  2   0.42380    -13.644611810700     10.797416768400     -0.704322901528
     330  110  2   0.42380    -13.589909392700      9.720271319630      0.521805893837
     331  111  1  -0.84760     -2.049299793530     17.480286948700     -3.972614557740
     332  111  2   0.42380     -1.087601864660     17.317262014100     -3.752251302370
     333  111  2   0.42380     -2.113603280960     18.167844300900     -4.695891786000
     334  112  1  -0.84760     14.731368880400     15.781996501200      6.099615540800
     335  112  2   0.42380     15.137814684900     16.157916990100      6.932373365120
     336  112  2   0.42380     14.865816184300     14.791250967400      6.080981978610
     337  113  1  -0.84760      0.272312076161      0.010374618650      6.041226090780
     338  113  2   0.42380      1.167323259530      0.186729072890      6.450926088490
     339  113  2   0.42380     -0.446500409865      0.272690010206      6.685042248770
     340  114  1  -0.84760      1.654627277780    -10.571018542900     -1.208766547340