LAMMPS Atom File

         4500 atoms
         3000 bonds
         1500 angles
           0 dihedrals
           0 impropers

           2 atom types
           1 bond types
           1 angle types

         0.0  207.811967368 xlo xhi
         0.0  207.811967368 ylo yhi
         0.0  207.811967368 zlo zhi

Masses

         1   15.9994
         2   1.00794

Atoms

       1    1  1  -0.84760    -64.618671453700     30.290873686400    -71.081117722700
       2    1  2   0.42380    -65.131940953200     29.966908450700    -70.286384467500
       3    1  2   0.42380    -63.693332424300     29.912491659100    -71.057144357900
       4    2  1  -0.84760    -92.802016052500    -70.178997255600    -42.240849415600
       5    2  2   0.42380    -92.490427148400    -70.132413284700    -43.189923853400
       6    2  2   0.42380    -93.732041602700    -70.545433247700    -42.212972190200
       7    3  1  -0.84760    -43.873277117200     66.350268723400    -17.309879762700
       8    3  2   0.42380    -43.767875513900     65.671690419500    -18.036806160200
       9    3  2   0.42380    -43.131549655500     67.018483578400    -17.367579678200
      10    4  1  -0.84760     88.055033377800    -59.978272929200     32.921901474600
      11    4  2   0.42380     89.007929562500    -59.842034900000     33.192877599900
      12    4  2   0.42380     87.525112303200    -59.159778718800     33.143826872400
      13    5  1  -0.84760      1.200129314260     49.321187933300    -44.937361200500
      14    5  2   0.42380      0.721541233492     49.725427623500    -45.716812111000
      15    5  2   0.42380      2.024209073500     49.852277536200    -44.740291710100
      16    6  1  -0.84760    -32.611569552500    -78.559923304700     39.335875742100
      17    6  2   0.42380    -33.498585224700    -78.225542219900     39.017453871800
      18    6  2   0.42380    -32.750768051200    -79.306939178900     39.985945785800
      19    7  1  -0.84760    -78.464229725200    -34.333467794900     99.284044602600
      20    7  2   0.42380    -77.817528046500    -34.922806696000     98.799837417300
      21    7  2   0.42380    -79.394081766500    -34.535732405800     98.976694300000
      22    8  1  -0.84760     98.687585370800     92.265767227000    -79.741340057000
      23    8  2   0.42380     98.823623196500     92.326311190900    -78.752488127500
      24    8  2   0.42380     97.717470619800     92.121025069000    -79.936088812000
      25    9  1  -0.84760    -63.124407915800      7.390309373000     94.490186882600
      26    9  2   0.42380    -63.491185854700      7.091006759370     93.609339626300
      27    9  2   0.42380    -62.172568878400      7.094993544650     94.572594457800
      28   10  1  -0.84760    -48.589883224800    -93.737109028900      3.702132452120
      29   10  2   0.42380    -49.520633129600    -94.090022672600      3.797822445150
      30   10  2   0.42380    -48.563849473100    -92.781622725900      3.996017069820
      31   11  1  -0.84760     -5.894480354500     45.710670390600     58.660438811200
      32   11  2   0.42380     -5.682820597920     45.927157324400     57.707373464500
      33   11  2   0.42380     -6.098855579240     44.735284383100     58.743221079400
      34   12  1  -0.84760    -71.957017727700     50.720640876500     79.466770088200
      35   12  2   0.42380    -72.300238915400     49.878699128700     79.050436916900
      36   12  2   0.42380    -70.981458481600     50.816588450500     79.269087968600
      37   13  1  -0.84760    -78.680409627400     77.378375303300     45.644781539800
      38   13  2   0.42380    -79.650654582600     77.275058995600     45.863757491500
      39   13  2   0.42380    -78.134866217100     76.836660669100     46.284256044900
      40   14  1  -0.84760     48.892958145800     11.930378614300     87.959079435100
      41   14  2   0.42380     48.876540823200     12.391016839400     88.846515572000
      42   14  2   0.42380     48.077208752800     12.181516898100     87.438039618800
      43   15  1  -0.84760    -40.313232027900    -82.487159830500    -19.503448360300
      44   15  2   0.42380    -40.335109091700    -82.962924760900    -20.382748721400
      45   15  2   0.42380    -41.014618660800    -82.867940662700    -18.900901475000
      46   16  1  -0.84760   -102.778295267000     44.746184366100    -15.057529344200
      47   16  2   0.42380   -103.017252957000     44.560137297900    -16.010569590200
      48   16  2   0.42380   -101.808033865000     44.551903559500    -14.913141739600
      49   17  1  -0.84760      9.766714841770     10.197152536100     78.737496442300
      50   17  2   0.42380     10.256143916900     10.978466435600     79.124804808900
      51   17  2   0.42380      9.651891438840     10.330455575200     77.753095159300
      52   18  1  -0.84760    -52.890273301200     21.680764889800     28.082067716500
      53   18  2   0.42380    -53.472221033800     22.240142855000     28.672349961300
      54   18  2   0.42380    -53.068808824200     21.909108282500     27.124996997000
      55   19  1  -0.84760     49.555398081700    -14.303108458500     84.789942705300
      56   19  2   0.42380     49.500060793300    -13.999534715200     83.838743059200
      57   19  2   0.42380     50.482870743600    -14.622391490500     84.984500683700
      58   20  1  -0.84760    -15.202927932200      4.479761788730    -25.497154796900
      59   20  2   0.42380    -14.950080630900      5.432567924080    -25.329140777700
      60   20  2   0.42380    -14.653359324100      4.116788523810    -26.249633869000
      61   21  1  -0.84760    -50.398904101400     95.940611663300     60.353159369900
      62   21  2   0.42380    -50.883061166800     96.082687299100     59.489790126900
      63   21  2   0.42380    -50.989069981200     96.209355472000     61.114395863800
      64   22  1  -0.84760     37.475844133400    -39.299606835900   -102.009055511000
      65   22  2   0.42380     38.187535466100    -39.974727288200   -101.814870491000
      66   22  2   0.42380     37.765536859300    -38.719475333600   -102.770321276000
      67   23  1  -0.84760    -85.699215367700     57.903707236900    -73.183481386100
      68   23  2   0.42380    -86.671541753800     57.719983755000    -73.327797293100
      69   23  2   0.42380    -85.533626334000     58.888119661000    -73.242747322100
      70   24  1  -0.84760    -65.519543527700    -75.938124219300    101.191684888000
      71   24  2   0.42380    -65.160286775300    -75.680014523500    102.088520420000
      72   24  2   0.42380    -66.514842914000    -75.841281829400    101.190858447000
      73   25  1  -0.84760     74.053129840200    -54.009752042700     45.703708277600
      74   25  2   0.42380     73.217634598300    -53.486593492300     45.871794064900
      75   25  2   0.42380     74.808401700700    -53.606748808400     46.220576548800
      76   26  1  -0.84760    -30.984646864400    -30.653546563000    -66.001188381600
      77   26  2   0.42380    -30.046064851400    -30.311049570600    -66.043136149500
      78   26  2   0.42380    -31.273395847600    -30.947055280100    -66.912493301900
      79   27  1  -0.84760     50.000151605100     54.546903028900     12.209318252400
      80   27  2   0.42380     50.439842744200     55.237017020400     12.784135076200
      81   27  2   0.42380     50.628189530000     54.269308687800     11.482331494100
      82   28  1  -0.84760     36.411458926400     -3.669775636580     -0.045578931775
      83   28  2   0.42380     37.234793888100     -4.077240652150     -0.440663481981
      84   28  2   0.42380     35.959355699500     -3.099932627510     -0.731787076032
      85   29  1  -0.84760    -33.825193094900     44.322095323800    -14.809007670300
      86   29  2   0.42380    -33.239168952500     45.082955673400    -14.530319254800
      87   29  2   0.42380    -33.503052810000     43.955624925500    -15.681890872200
      88   30  1  -0.84760      2.475231109440     73.063495173700    -12.788471930300
      89   30  2   0.42380      1.583916969030     73.516722407700    -12.776464538400
      90   30  2   0.42380      2.884563335150     73.157108049900    -13.696042180100
      91   31  1  -0.84760    -18.884776673000    -91.771002484000    -75.918696699900
      92   31  2   0.42380    -19.036738625700    -92.044700057500    -76.868432033100
      93   31  2   0.42380    -17.932521442000    -91.947161912800    -75.669341871100
      94   32  1  -0.84760     77.102088243500     19.930461018600     48.425270623500
      95   32  2   0.42380     76.251902907300     20.048673860400     47.912230061600
      96   32  2   0.42380     77.215302984100     18.966289447600     48.665178114200
      97   33  1  -0.84760     16.979964103800    103.643078243000     34.735847610400
      98   33  2   0.42380     16.122333418900    103.165358738000     34.926251609400
      99   33  2   0.42380     16.783925098300    104.510337972754     34.278213182700
     100   34  1  -0.84760    -75.843170079400    -52.936779931700    -49.182648658500
     101   34  2   0.42380    -76.688809339200    -53.463114789700    -49.093958977100
     102   34  2   0.42380    -75.412105480200    -53.144059265000    -50.060839178400
     103   35  1  -0.84760    -41.147007246600    -44.925745436500    -51.383368325500
     104   35  2   0.42380    -40.267009507800    -45.309922367900    -51.104061925300
     105   35  2   0.42380    -41.880988744100    -45.359369731200    -50.860643606000
     106   36  1  -0.84760    -65.276655077300     47.999396605300     45.979542519100
     107   36  2   0.42380    -65.956264749100     48.334155548300     46.632280708700
     108   36  2   0.42380    -65.307432983400     47.000329993100     45.949233694900
     109   37  1  -0.84760     47.354167121500    -83.105600973200    -63.841073568500
     110   37  2   0.42380     47.366955171900    -83.509053386000    -64.755984830000
     111   37  2   0.42380     47.004093738100    -83.775440085200    -63.186272690300
     112   38  1  -0.84760      2.361804340990     46.372161107100     97.176439665600
     113   38  2   0.42380      1.847882397370     45.598425932500     96.806010029400
     114   38  2   0.42380      1.853162762000     46.777003600400     97.936299060300
     115   39  1  -0.84760     44.047196140900     20.018149880700    -10.096275898600
     116   39  2   0.42380     44.693372128400     19.302359186700    -10.361040464900
     117   39  2   0.42380     44.455841607500     20.589421718100     -9.384477211920
     118   40  1  -0.84760   -101.942161002000    -99.907874895600    -73.123111714400
     119   40  2   0.42380   -101.529885225000    -99.161721155000    -72.600346681900
     120   40  2   0.42380   -101.355436397000   -100.133988021000    -73.900689422700
     121   41  1  -0.84760     20.359077889200     73.941999175400    -95.501833301500
     122   41  2   0.42380     20.835702414600     73.069907727300    -95.612673582500
     123   41  2   0.42380     20.307514253500     74.172517620700    -94.530132505000
     124   42  1  -0.84760     38.337855693000     74.241535176600     96.376230094200
     125   42  2   0.42380     37.743474754300     75.037661683400     96.489781337800
     126   42  2   0.42380     39.255420774100     74.460588091300     96.708028440300
     127   43  1  -0.84760    -55.877805733800    -63.807479378500     77.831648006400
     128   43  2   0.42380    -55.852217175800    -63.263394749900     76.993007950900
     129   43  2   0.42380    -55.921613115900    -64.778726621100     77.597640085900
     130   44  1  -0.84760     85.233254263900    -79.650107058800    -72.249475037300
     131   44  2   0.42380     85.446018866300    -79.836461264600    -73.208643079900
     132   44  2   0.42380     84.702543763900    -78.805096744000    -72.183870669700
     133   45  1  -0.84760    -58.237311642200      8.240818593710    -54.532536346300
     134   45  2   0.42380    -58.541034426000      7.905226183230    -55.424237083500
     135   45  2   0.42380    -57.238461682400      8.285778049530    -54.515880864900
     136   46  1  -0.84760    -37.059479322300      8.482087167570    -65.622476844000
     137   46  2   0.42380    -36.192969500400      8.946204273240    -65.806205014800
     138   46  2   0.42380    -37.560663484000      8.360475940850    -66.479229518700
     139   47  1  -0.84760     27.174612549500     45.994186995100     69.636870105200
     140   47  2   0.42380     27.574194588000     46.619313479600     68.966384406000
     141   47  2   0.42380     27.899435645400     45.447880459400     70.056608891500
     142   48  1  -0.84760     -3.402916162470     60.741441808700     28.463385923600
     143   48  2   0.42380     -3.676497463930     61.505521973800     29.047624550100
     144   48  2   0.42380     -3.226421183890     59.935900345700     29.029029339400
     145   49  1  -0.84760     46.461486775300    -69.756059683600     56.474161094700
     146   49  2   0.42380     46.548105528300    -70.073593957500     55.529878734100
     147   49  2   0.42380     46.534465527300    -70.535772864100     57.096030420200
     148   50  1  -0.84760     61.248489113700    -66.901086585300    -95.393413840300
     149   50  2   0.42380     61.814046867700    -67.461816583100    -94.788660753000
     150   50  2   0.42380     60.576640885100    -67.481106230500    -95.854062479500
     151   51  1  -0.84760    -18.456265296300     10.580394416300    -95.514129463000
     152   51  2   0.42380    -18.930024001800     10.880773001300    -94.686285640400
     153   51  2   0.42380    -17.689986932400     11.195049727900    -95.701255935900
     154   52  1  -0.84760    -70.108869261100     28.550202301500    -31.326146268400
     155   52  2   0.42380    -70.810101310700     27.903286140400    -31.026524685200
     156   52  2   0.42380    -69.798475397100     29.091052804400    -30.544394144700
     157   53  1  -0.84760     58.029993606000     86.523398223200     83.022240236500
     158   53  2   0.42380     57.322457460000     86.733001674500     83.697117258900
     159   53  2   0.42380     57.608809616800     86.108899155700     82.215521840600
     160   54  1  -0.84760     48.550295307900    -16.281132795300     -9.242751878750
     161   54  2   0.42380     48.103130129300    -17.021781879200     -8.741271831750
     162   54  2   0.42380     48.584082680100    -16.510186867700    -10.215579019300
     163   55  1  -0.84760    -52.210992659100    -38.156578269800     27.956751311500
     164   55  2   0.42380    -52.488588986400    -38.373934423400     27.020964700400
     165   55  2   0.42380    -51.212877696300    -38.161280528800     28.017942895000
     166   56  1  -0.84760    -26.825678793400    -20.982584683300      5.710622702010
     167   56  2   0.42380    -27.201540059100    -20.732817960800      6.603004287020
     168   56  2   0.42380    -26.511594055500    -20.158723830800      5.238813341020
     169   57  1  -0.84760    101.291450426000    -31.954051582900    -37.109584518300
     170   57  2   0.42380    100.331557198000    -31.689831689000    -37.015814384200
     171   57  2   0.42380    101.853622631000    -31.134324405800    -37.219173605300
     172   58  1  -0.84760    -44.131100141200    -33.451261057300     96.840411494200
     173   58  2   0.42380    -44.737733031600    -33.874952601500     96.167743662600
     174   58  2   0.42380    -43.876316377100    -34.127215402400     97.531910559200
     175   59  1  -0.84760     20.930726408500     46.217243970100     51.015055959900
     176   59  2   0.42380     20.879198872500     45.562621657600     51.769253905400
     177   59  2   0.42380     21.889453823300     46.407047855800     50.803357521100
     178   60  1  -0.84760    -48.041868123500     39.034569197200     88.888820258700
     179   60  2   0.42380    -49.006685255900     39.088720100300     88.631535240400
     180   60  2   0.42380    -47.814980289000     39.797574555500     89.494084443800
     181   61  1  -0.84760    -73.955958327600     -6.042763831720     -7.613624712750
     182   61  2   0.42380    -73.620024336300     -6.966727826060     -7.430761674850
     183   61  2   0.42380    -73.299585177600     -5.374195940140     -7.264066044820
     184   62  1  -0.84760     -6.792166678950     88.795296260900     76.124928226000
     185   62  2   0.42380     -6.976128808990     87.887627024600     75.747708804200
     186   62  2   0.42380     -6.398054350740     88.702630431200     77.039306986000
     187   63  1  -0.84760    -46.840030029800   -102.020908967000    -14.120737359200
     188   63  2   0.42380    -47.248403963900   -102.318626447000    -13.257838157700
     189   63  2   0.42380    -45.879655494200   -101.785627630000    -13.971327038500
     190   64  1  -0.84760    -56.879330622100    -99.705122599400     20.924800517800
     191   64  2   0.42380    -57.389059533300    -98.945259199400     20.521335462800
     192   64  2   0.42380    -57.186033983700    -99.850023499100     21.865511300800
     193   65  1  -0.84760    -39.453960074900     81.714466295500    -83.327910089200
     194   65  2   0.42380    -39.197664671000     80.878533326700    -83.813223119700
     195   65  2   0.42380    -38.950822134000     82.489465869400    -83.710307621700
     196   66  1  -0.84760    -56.910695840500     42.051964482500    -70.069260035800
     197   66  2   0.42380    -56.806807622600     41.148838776900    -69.652641267600
     198   66  2   0.42380    -57.439107296200     42.641894979300    -69.458716554700
     199   67  1  -0.84760    -46.247418971700    -18.509443863300    -59.900316201800
     200   67  2   0.42380    -46.529832915100    -19.367466131300    -59.471317189800
     201   67  2   0.42380    -45.773808393300    -18.706100601100    -60.758814394900
     202   68  1  -0.84760     -2.365363931200    101.893246246000     83.039799620700
     203   68  2   0.42380     -1.981351425230    101.836978484000     83.961411433800
     204   68  2   0.42380     -3.196028405060    101.338669247000     82.990394320400
     205   69  1  -0.84760    -96.673943309700    -90.068464952500     47.261947703200
     206   69  2   0.42380    -95.830197188600    -90.439233982500     47.650049248400
     207   69  2   0.42380    -96.510948520200    -89.135981876200     46.939600047500
     208   70  1  -0.84760    -60.561494332100    -20.159894160200     55.941868503000
     209   70  2   0.42380    -60.089226136600    -19.638897661100     55.230865409200
     210   70  2   0.42380    -60.707038129900    -21.097729033200     55.626776843500
     211   71  1  -0.84760    -11.747352533100    -83.103325285200     28.291989414000
     212   71  2   0.42380    -12.382443525300    -83.714691194500     27.819875914400
     213   71  2   0.42380    -11.634802303500    -83.405923198000     29.238439068800
     214   72  1  -0.84760     76.929667885900    -77.015041953400     16.319786199700
     215   72  2   0.42380     77.113448059500    -77.130551694400     15.343629272000
     216   72  2   0.42380     77.794069809400    -76.910615779900     16.811624068400
     217   73  1  -0.84760     60.842489638100      4.953300771120     93.999106665000
     218   73  2   0.42380     60.383800484100      5.012649151560     93.112493993200
     219   73  2   0.42380     60.724944279900      5.814549295180     94.493509404200
     220   74  1  -0.84760     -6.544784197030    -34.241538655100     27.681316213300
     221   74  2   0.42380     -7.277445051810    -33.811147037700     28.208545885800
     222   74  2   0.42380     -6.430089719680    -33.757827007900     26.813636422600
     223   75  1  -0.84760     88.456293094700     26.770287640500    -87.412215855900
     224   75  2   0.42380     87.968917735300     26.135963291300    -88.012297416200
     225   75  2   0.42380     89.410287136200     26.482664512800    -87.327550011500
     226   76  1  -0.84760     -7.146490616410    -53.688626853800    -68.501903648000
     227   76  2   0.42380     -7.637871405090    -53.807536170200    -69.364693016800
     228   76  2   0.42380     -7.505485276630    -52.888475674500    -68.021402946300
     229   77  1  -0.84760     58.920035197600    -53.026571976900     21.128424533500
     230   77  2   0.42380     58.767140441900    -53.625472239700     20.342331874300
     231   77  2   0.42380     59.900870355500    -52.961469907400     21.312065797000
     232   78  1  -0.84760     -8.775836367710     37.683799728000    -59.284014517000
     233   78  2   0.42380     -9.677162038860     37.771931411900    -58.859933344600
     234   78  2   0.42380     -8.379951978790     36.797323598100    -59.044357216200
     235   79  1  -0.84760     61.960881006200     21.562949258400    -96.998901764600
     236   79  2   0.42380     61.726021058200     22.459814557100    -96.624103898000
     237   79  2   0.42380     62.868443294700     21.603625203100    -97.416844535800
     238   80  1  -0.84760     -1.702291643590    -80.578084522600    -36.008081001900
     239   80  2   0.42380     -0.761803030294    -80.243541002200    -36.067761829700
     240   80  2   0.42380     -1.708111390190    -81.574040341800    -36.097736658300
     241   81  1  -0.84760   -101.088076370000    -57.715625427200     94.192583661900
     242   81  2   0.42380   -101.986000524000    -57.459270648300     93.834792605000
     243   81  2   0.42380   -100.506119410000    -58.026325315000     93.441057430500
     244   82  1  -0.84760     34.683479167700    -31.645750599000    -37.638669207500
     245   82  2   0.42380     33.781574875600    -31.415976873000    -37.272919726800
     246   82  2   0.42380     34.903700972900    -31.029002128500    -38.394396460400
     247   83  1  -0.84760     81.920776793800     35.074795290900     77.435147833800
     248   83  2   0.42380     81.436541680800     34.734311554200     78.241117548100
     249   83  2   0.42380     81.276310762800     35.547357855000     76.834025418600
     250   84  1  -0.84760     85.895901900900    -98.937308484600     99.037213797000
     251   84  2   0.42380     85.212616693600    -99.640587633700     98.840949271900
     252   84  2   0.42380     86.432403541400    -99.207706833200     99.836620278700
     253   85  1  -0.84760     52.468877747800    -36.515885918800    -47.802595743100
     254   85  2   0.42380     51.858811413600    -36.827277152700    -48.531193414900
     255   85  2   0.42380     53.414194045500    -36.535795896800    -48.128142498900
     256   86  1  -0.84760    -64.863254830100     28.983605209000     15.842203424300
     257   86  2   0.42380    -64.590851284800     28.104901501100     15.450187988100
     258   86  2   0.42380    -64.487368626700     29.067751259900     16.765040898700
     259   87  1  -0.84760     39.264048970900     70.290516578100    -16.326149319000
     260   87  2   0.42380     40.156794708200     70.441584338400    -15.901668954100
     261   87  2   0.42380     39.203764388100     70.819285817400    -17.172771348400
     262   88  1  -0.84760     88.595710027300    -59.119499220100      0.950517905893
     263   88  2   0.42380     89.430148775500    -58.877013195700      1.445404260010
     264   88  2   0.42380     88.509751265800    -58.541741535700      0.138848546178
     265   89  1  -0.84760     38.334418529800     57.640870629100    -27.279624166400
     266   89  2   0.42380     38.252532235900     57.445857875400    -26.302247749300
     267   89  2   0.42380     38.697428577500     58.564040292900    -27.406042033300
     268   90  1  -0.84760     37.233091064300     44.126938757600     56.721822213000
     269   90  2   0.42380     36.586203533800     43.526508518900     57.191949909700
     270   90  2   0.42380     37.516371378200     44.860535669300     57.339550174900
     271   91  1  -0.84760    -16.116842329100     94.694831244900    -59.607593821700
     272   91  2   0.42380    -15.155880067100     94.955071827200    -59.701542585400
     273   91  2   0.42380    -16.390679932400     94.771321259200    -58.648864326700
     274   92  1  -0.84760     -2.717688679690     21.591853925700    -47.966870464700
     275   92  2   0.42380     -1.947863793410     22.167648199600    -48.242244026800
     276   92  2   0.42380     -3.485827031050     22.170774868100    -47.693348956000
     277   93  1  -0.84760   -101.792183541000     96.947424683800    100.282638899000
     278   93  2   0.42380   -102.330194427000     97.218267523400    101.080879741000
     279   93  2   0.42380   -101.394332396000     96.043555363400    100.439911649000
     280   94  1  -0.84760     60.101041508500     86.525736112100     98.439286363800
     281   94  2   0.42380     60.552073157400     87.382586774900     98.189531697400
     282   94  2   0.42380     60.444126721800     85.787032784700     97.859105417300
     283   95  1  -0.84760    -90.505718910500     91.739969481900    -13.599264621100
     284   95  2   0.42380    -90.767387828000     92.588369841900    -14.059423514100
     285   95  2   0.42380    -89.522750004100     91.749802480900    -13.415755926300
     286   96  1  -0.84760    -47.209919522500    -42.208814882000    -87.453764701700
     287   96  2   0.42380    -47.299605484400    -41.343424048500    -86.960758481100
     288   96  2   0.42380    -48.064560691800    -42.723124922000    -87.382535111000
     289   97  1  -0.84760     -3.338339478980    -88.893581511300     23.660703575100
     290   97  2   0.42380     -2.523581792570    -88.472990204100     24.059793620900
     291   97  2   0.42380     -4.095503443630    -88.836796561200     24.311455601600
     292   98  1  -0.84760     98.748171698500     25.911405378600    -90.510878083300
     293   98  2   0.42380     98.075661584800     26.153357174600    -89.811457269100
     294   98  2   0.42380     98.956474404300     24.935270629300    -90.449470153200
     295   99  1  -0.84760    -38.458599081900    -43.688118496600     33.992588498700
     296   99  2   0.42380    -39.081151086400    -44.457620340600     33.850124770800
     297   99  2   0.42380    -37.524249630400    -44.029690401900     34.094174599800
     298  100  1  -0.84760    -89.862724369000      6.220106687440    -21.104226609100
     299  100  2   0.42380    -90.858467106500      6.308887700000    -21.129012340200
     300  100  2   0.42380    -89.568082334200      5.573867517120    -21.808187549800
     301  101  1  -0.84760    -85.245188316100    -27.546811544100     35.378076483000
     302  101  2   0.42380    -84.560631570800    -28.167961702600     35.759592594000
     303  101  2   0.42380    -85.165955545400    -26.652456667000     35.818362210600
     304  102  1  -0.84760    -18.628982538900    -58.980794025800      0.470494180435
     305  102  2   0.42380    -18.906771001300    -59.840871649200      0.042592261874
     306  102  2   0.42380    -19.153464415200    -58.226951900300      0.074715440358
     307  103  1  -0.84760    -93.797066801200    -83.287096621900    -18.516739473300
     308  103  2   0.42380    -94.465322372200    -82.814288465000    -17.942381624400
     309  103  2   0.42380    -94.275071593300    -83.876019511500    -19.168415197000
     310  104  1  -0.84760    -88.554259537200    -74.776380354500     56.225471315300
     311  104  2   0.42380    -87.918918456300    -75.498591978700     56.498879582900
     312  104  2   0.42380    -88.040444551000    -74.004946144600     55.850126913700
     313  105  1  -0.84760     -3.556623224020     76.047923510700     32.341474214600
     314  105  2   0.42380     -3.737220510800     75.420839893900     31.583746851100
     315  105  2   0.42380     -4.022310959190     75.720255007500     33.163525481500
     316  106  1  -0.84760    -77.482260806900     72.234559621800    -65.870937183000
     317  106  2   0.42380    -76.986789695300     72.941127495700    -65.365694452100
     318  106  2   0.42380    -78.404658336500     72.559238063800    -66.080142122100
     319  107  1  -0.84760     88.219267887500    -93.876695284900    -41.605392284900
     320  107  2   0.42380     88.800356694000    -94.604327067400    -41.240854511700
     321  107  2   0.42380     87.701814996700    -93.457979475200    -40.859121840300
     322  108  1  -0.84760    -63.729962764700    -70.645279443600     95.586982630700
     323  108  2   0.42380    -63.330120663000    -71.472296220000     95.982165557100
     324  108  2   0.42380    -64.716702953800    -70.641773762400     95.749252497100
     325  109  1  -0.84760     81.616419628700     52.697484361400    -81.882837751500
     326  109  2   0.42380     81.920675278800     52.175220298600    -82.679498751000
     327  109  2   0.42380     82.399026054500     53.165526809000    -81.472394759600
     328  110  1  -0.84760     84.909546525900    -49.791190930800     63.515918304700
     329  110  2   0.42380     84.179667786900    -49.871221940600     62.837042716900
     330  110  2   0.42380     84.930608752600    -50.615651411500     64.081445756100
     331  111  1  -0.84760     77.651226005700     87.351635116100     47.972636820800
     332  111  2   0.42380     77.996079794300     86.491598536600     48.348685948500
     333  111  2   0.42380     78.419038611100     87.908691274700     47.656168435400
     334  112  1  -0.84760    -34.923397129200   -100.833817690000    -99.745696182000
     335  112  2   0.42380    -35.235506884400    -99.885309716000    -99.691658008700
     336  112  2   0.42380    -34.043264451400   -100.868641799000   -100.219144966000
     337  113  1  -0.84760    -13.578380731800     41.303198794900    -26.257973564800
     338  113  2   0.42380    -13.912356504200     40.683084942400    -26.967846083800
     339  113  2   0.42380    -12.734861332500     40.936821750300    -25.865235886100
     340  114  1  -0.84760     72.346035026800     89.996405752000    -64.888113747400