LAMMPS Atom File

         4500 atoms
         3000 bonds
         1500 angles
           0 dihedrals
           0 impropers

           2 atom types
           1 bond types
           1 angle types

         0.0  355.35346563 xlo xhi
         0.0  355.35346563 ylo yhi
         0.0  355.35346563 zlo zhi

Masses

         1   15.9994
         2   1.00794

Atoms

       1    1  1  -0.84760   -107.732605634000     53.375284690100   -117.915878689000
       2    1  2   0.42380   -106.934406960000     53.773637232800   -117.464000246000
       3    1  2   0.42380   -108.051670627000     53.993115210200   -118.634546191000
       4    2  1  -0.84760   -155.207972133000   -121.441136571000    -71.222475640100
       5    2  2   0.42380   -155.114458498000   -121.939096040000    -72.084619228700
       6    2  2   0.42380   -154.905779680000   -120.496298368000    -71.348810474800
       7    3  1  -0.84760    -71.952308961700    111.614985484000    -26.785642030700
       8    3  2   0.42380    -72.584620822000    112.211888894000    -26.291791820400
       9    3  2   0.42380    -71.830919625500    111.956322745000    -27.717711504300
      10    4  1  -0.84760    148.554703645000   -102.282779978000     56.922434902200
      11    4  2   0.42380    149.507599830000   -102.146541949000     57.193411027500
      12    4  2   0.42380    148.024782571000   -101.464285768000     57.144360300100
      13    5  1  -0.84760     -3.584362850270     88.377992734100    -71.569242379400
      14    5  2   0.42380     -3.849574925340     89.318079451100    -71.355000647400
      15    5  2   0.42380     -3.004711134350     88.372665143200    -72.384089300600
      16    6  1  -0.84760    -55.170011901700   -130.388294893000     69.179273896700
      17    6  2   0.42380    -55.100935491000   -130.022067646000     70.107231898600
      18    6  2   0.42380    -56.045123354500   -130.860040940000     69.071405401300
      19    7  1  -0.84760   -135.933179096000    -58.828822507300    167.759372995000
      20    7  2   0.42380   -135.286477417000    -59.418161408400    167.275165810000
      21    7  2   0.42380   -136.863031137000    -59.031087118200    167.452022693000
      22    8  1  -0.84760    172.673309459000    153.739982793000   -128.168447465000
      23    8  2   0.42380    172.809347285000    153.800526757000   -127.179595536000
      24    8  2   0.42380    171.703194708000    153.595240635000   -128.363196220000
      25    9  1  -0.84760   -105.028544758000     11.449169476900    160.967765014000
      26    9  2   0.42380   -105.395322697000     11.149866863200    160.086917757000
      27    9  2   0.42380   -104.076705721000     11.153853648500    161.050172589000
      28   10  1  -0.84760    -79.937904079300   -163.463400480000      8.621676441000
      29   10  2   0.42380    -79.962897546600   -164.460511255000      8.693408077760
      30   10  2   0.42380    -80.864914502900   -163.099391053000      8.711947209080
      31   11  1  -0.84760     -4.390989553590     82.876653382300    103.905991067000
      32   11  2   0.42380     -3.734491496320     83.096678675800    103.184465481000
      33   11  2   0.42380     -4.104458297390     82.040485897400    104.373670205000
      34   12  1  -0.84760   -116.803680059000     86.161978250900    136.105273564000
      35   12  2   0.42380   -117.146901247000     85.320036503100    135.688940393000
      36   12  2   0.42380   -115.828120813000     86.257925824900    135.907591445000
      37   13  1  -0.84760   -135.878984069000    136.920479060000     74.058832198400
      38   13  2   0.42380   -136.199512221000    136.844977760000     73.114606983100
      39   13  2   0.42380   -135.496804435000    136.044184203000     74.352168270900
      40   14  1  -0.84760     84.211052046900     22.467775136300    150.480741957000
      41   14  2   0.42380     84.194634724400     22.928413361400    151.368178093000
      42   14  2   0.42380     83.395302653900     22.718913420100    149.959702140000
      43   15  1  -0.84760    -68.530811324100   -139.817784788000    -30.678376629200
      44   15  2   0.42380    -68.392255078900   -139.565229884000    -31.635987295100
      45   15  2   0.42380    -67.699757137900   -139.620992792000    -30.158163356000
      46   16  1  -0.84760    177.462880324000     77.236167029100    -24.899772404100
      47   16  2   0.42380    177.223922634000     77.050119960900    -25.852812650100
      48   16  2   0.42380    178.433141726422     77.041886222600    -24.755384799500
      49   17  1  -0.84760     16.282239424800     18.119057910800    134.118500527000
      50   17  2   0.42380     16.771668499900     18.900371810300    134.505808894000
      51   17  2   0.42380     16.167416021900     18.252360949800    133.134099245000
      52   18  1  -0.84760    -93.843638625400     35.089335379000     44.819767037900
      53   18  2   0.42380    -94.425586358000     35.648713344200     45.410049282700
      54   18  2   0.42380    -94.022174148400     35.317678771600     43.862696318400
      55   19  1  -0.84760     86.530298954500    -24.764085388200    146.764502118000
      56   19  2   0.42380     86.474961666100    -24.460511644900    145.813302471000
      57   19  2   0.42380     87.457771616400    -25.083368420200    146.959060096000
      58   20  1  -0.84760    -28.183475985300      4.738200956690    -37.982669643100
      59   20  2   0.42380    -27.593991858800      5.239692854130    -38.615926574700
      60   20  2   0.42380    -27.661100656500      4.489458637140    -37.167040270000
      61   21  1  -0.84760    -90.349806955700    160.451223807000    104.830772476000
      62   21  2   0.42380    -89.404690573900    160.391323359000    104.509576335000
      63   21  2   0.42380    -90.968975068900    160.162851556000    104.100380600000
      64   22  1  -0.84760     66.508336405700    -59.864512744100    177.307885632000
      65   22  2   0.42380     67.097521079400    -59.058535766500    177.365004209000
      66   22  2   0.42380     66.092090769400    -59.909422082300    176.399743175000
      67   23  1  -0.84760   -144.108587774000     98.429063387500   -122.000759519000
      68   23  2   0.42380   -145.080914161000     98.245339905600   -122.145075426000
      69   23  2   0.42380   -143.942998741000     99.413475811600   -122.060025455000
      70   24  1  -0.84760   -110.604474658000   -123.127799389000    171.822428635000
      71   24  2   0.42380   -111.279817224000   -123.141726008000    172.559801314000
      72   24  2   0.42380   -110.908446311000   -122.502345704000    171.103812658000
      73   25  1  -0.84760    126.706569044000    -92.567833589200     78.684164110400
      74   25  2   0.42380    126.806718836000    -93.344723671500     79.305784427800
      75   25  2   0.42380    126.220994604000    -92.860506966100     77.860416723400
      76   26  1  -0.84760    -51.662935247800    -55.451416607100   -113.703677498000
      77   26  2   0.42380    -51.412207850400    -56.239548288000   -113.141552756000
      78   26  2   0.42380    -52.228080088600    -55.755324966800   -114.470652738000
      79   27  1  -0.84760     85.669157143200     89.879537210000     18.410709112300
      80   27  2   0.42380     86.108848282200     90.569651201500     18.985525936200
      81   27  2   0.42380     86.297195068000     89.601942868900     17.683722354100
      82   28  1  -0.84760     60.744688165800     -8.696606993410      2.156714982000
      83   28  2   0.42380     60.396601624700     -9.558309491850      2.525909461980
      84   28  2   0.42380     61.173454744700     -8.863411624040      1.268832424430
      85   29  1  -0.84760    -58.099958697000     71.944169551900    -29.488948068800
      86   29  2   0.42380    -57.513934554600     72.705029901500    -29.210259653300
      87   29  2   0.42380    -57.777818412100     71.577699153700    -30.361831270600
      88   30  1  -0.84760      6.479601947980    125.092373783000    -22.998711680900
      89   30  2   0.42380      7.456182576290    124.877668159000    -22.984863525600
      90   30  2   0.42380      6.031562174200    124.657273773000    -22.217719784300
      91   31  1  -0.84760    -30.129093144200   -157.050673534000   -128.776440652000
      92   31  2   0.42380    -30.281055096900   -157.324371108000   -129.726175985000
      93   31  2   0.42380    -29.176837913200   -157.226832963000   -128.527085823000
      94   32  1  -0.84760    133.900319531000     34.316487054100     84.436263833300
      95   32  2   0.42380    134.873970922000     34.447361751100     84.249515918500
      96   32  2   0.42380    133.362237074000     34.706633374800     83.689100452400
      97   33  1  -0.84760     27.805037143100    175.419341041000     61.695044525400
      98   33  2   0.42380     27.208038067400    176.003666755000     61.145357739200
      99   33  2   0.42380     27.792696350700    175.730311913000     62.645383844600
     100   34  1  -0.84760   -129.811288145000    -88.059864363300    -83.150322608100
     101   34  2   0.42380   -130.656927405000    -88.586199221300    -83.061632926800
     102   34  2   0.42380   -129.380223546000    -88.267143696600    -84.028513128000
     103   35  1  -0.84760    -73.267514369100    -76.277523614900    -86.727352060800
     104   35  2   0.42380    -72.387516630300    -76.661700546300    -86.448045660600
     105   35  2   0.42380    -74.001495866700    -76.711147909600    -86.204627341300
     106   36  1  -0.84760   -113.818900905000     84.969734752400     76.162022863200
     107   36  2   0.42380   -114.498510577000     85.304493695400     76.814761052700
     108   36  2   0.42380   -113.849678811000     83.970668140200     76.131714038900
     109   37  1  -0.84760     82.934275211900   -139.081375821000   -112.654419625000
     110   37  2   0.42380     82.166112124800   -139.573188801000   -113.064353113000
     111   37  2   0.42380     82.599648749600   -138.497576933000   -111.914687248000
     112   38  1  -0.84760      1.491770406530     74.921033448600    165.081025188000
     113   38  2   0.42380      1.899326943590     74.145016075100    164.599678426000
     114   38  2   0.42380      1.885225792010     74.988477622300    165.997891669000
     115   39  1  -0.84760     75.147809213500     37.848729838500    -12.679301862300
     116   39  2   0.42380     75.793985201000     37.132939144500    -12.944066428600
     117   39  2   0.42380     75.556454680100     38.420001675900    -11.967503175700
     118   40  1  -0.84760   -170.166414218000   -164.520562460000   -123.446629406000
     119   40  2   0.42380   -170.911501541000   -164.200893706000   -124.031998323000
     120   40  2   0.42380   -169.349534232000   -163.969137766000   -123.615856754000
     121   41  1  -0.84760     32.876589865200    128.918533689000   -165.408805127000
     122   41  2   0.42380     33.353214390600    128.046442241000   -165.519645408000
     123   41  2   0.42380     32.825026229500    129.149052135000   -164.437104330000
     124   42  1  -0.84760     63.049591294400    131.453006024000    168.638581419000
     125   42  2   0.42380     63.012873638800    130.934357283000    169.492780047000
     126   42  2   0.42380     62.610612529300    130.927014989000    167.910137135000
     127   43  1  -0.84760    -96.874132483300   -115.152927390000    135.308345237000
     128   43  2   0.42380    -96.848543925300   -114.608842762000    134.469705181000
     129   43  2   0.42380    -96.917939865400   -116.124174633000    135.074337317000
     130   44  1  -0.84760    141.473894233000   -133.630436498000   -124.669446758000
     131   44  2   0.42380    140.639265951000   -133.699661098000   -125.215893083000
     132   44  2   0.42380    141.308231252000   -133.037270672000   -123.881595198000
     133   45  1  -0.84760   -101.930457419000     14.237014378600    -88.355174573900
     134   45  2   0.42380   -101.361348047000     14.594256717900    -87.614571823700
     135   45  2   0.42380   -102.168712016000     13.285026795100    -88.162939333400
     136   46  1  -0.84760    -62.720931835600     15.580417910700   -113.727813032000
     137   46  2   0.42380    -63.098238169700     15.955607876600   -112.881129845000
     138   46  2   0.42380    -62.506400215700     14.612504495900   -113.596970358000
     139   47  1  -0.84760     45.898439621100     78.920587215700    116.936119003000
     140   47  2   0.42380     46.298021659600     79.545713700100    116.265633304000
     141   47  2   0.42380     46.623262716900     78.374280679900    117.355857790000
     142   48  1  -0.84760     -7.849724459610    104.185566444000     48.646494434100
     143   48  2   0.42380     -8.158630031030    104.624278183000     49.490360157000
     144   48  2   0.42380     -7.202177023680    104.785508505000     48.176652075600
     145   49  1  -0.84760     77.695429809200   -119.334749495000     98.391379979800
     146   49  2   0.42380     77.782048562200   -119.652283769000     97.447097619200
     147   49  2   0.42380     77.768408561200   -120.114462676000     99.013249305300
     148   50  1  -0.84760    105.762739420000   -113.636184683000   -161.737573934000
     149   50  2   0.42380    106.425248776000   -114.352059446000   -161.958038622000
     150   50  2   0.42380    104.851743243000   -114.039785334000   -161.652765443000
     151   51  1  -0.84760    -33.331038018900     18.012635799500   -167.934141263000
     152   51  2   0.42380    -33.804796724400     18.313014384600   -167.106297441000
     153   51  2   0.42380    -32.564759655000     18.627291111200   -168.121267736000
     154   52  1  -0.84760   -117.866027750000     47.632323756100    -51.233272479700
     155   52  2   0.42380   -118.837449818000     47.843737060800    -51.341177897500
     156   52  2   0.42380   -117.661521750000     47.489693004200    -50.264854303100
     157   53  1  -0.84760     98.389293826700    145.736144886000    141.999618546000
     158   53  2   0.42380     97.681757680700    145.945748338000    142.674495568000
     159   53  2   0.42380     97.968109837400    145.321645819000    141.192900150000
     160   54  1  -0.84760     83.255300893300    -26.586633365600    -18.907643630400
     161   54  2   0.42380     82.808135714700    -27.327282449600    -18.406163583500
     162   54  2   0.42380     83.289088265500    -26.815687438100    -19.880470771000
     163   55  1  -0.84760    -93.674891665700    -59.927124413300     45.880983758900
     164   55  2   0.42380    -93.952487993100    -60.144480566900     44.945197147800
     165   55  2   0.42380    -92.676776703000    -59.931826672300     45.942175342400
     166   56  1  -0.84760    -46.173087066900    -35.030948362800     17.074678774600
     167   56  2   0.42380    -46.563104431900    -35.887822846500     17.411802748900
     168   56  2   0.42380    -45.214965669500    -34.968140768800     17.354068456100
     169   57  1  -0.84760    173.742141976000    -51.012136732400    -60.171365023900
     170   57  2   0.42380    172.782248748000    -50.747916838500    -60.077594889800
     171   57  2   0.42380    174.304314180000    -50.192409555300    -60.280954111000
     172   58  1  -0.84760    -70.950456956100    -53.744242181100    163.791924912000
     173   58  2   0.42380    -71.557089846500    -54.167933725300    163.119257081000
     174   58  2   0.42380    -70.695673192000    -54.420196526300    164.483423977000
     175   59  1  -0.84760     35.326270217200     80.940303350700     87.951362377600
     176   59  2   0.42380     35.636387969200     80.089322726200     87.527500423000
     177   59  2   0.42380     34.646593224900     81.377614940800     87.362467005400
     178   60  1  -0.84760    -77.784019880800     65.489614603300    147.959094986000
     179   60  2   0.42380    -78.748837013300     65.543765506400    147.701809967000
     180   60  2   0.42380    -77.557132046400     66.252619961600    148.564359171000
     181   61  1  -0.84760   -128.497032050000     -9.955991569150    -11.189658363200
     182   61  2   0.42380   -127.675731765000     -9.744639950160    -10.659756170000
     183   61  2   0.42380   -128.514124417000    -10.932923015200    -11.402526398900
     184   62  1  -0.84760     -9.557801841620    154.596500994000    129.482469165000
     185   62  2   0.42380     -9.741763971660    153.688831757000    129.105249744000
     186   62  2   0.42380     -9.163689513410    154.503835164000    130.396847925000
     187   63  1  -0.84760    -85.121112993300   -173.352747223000    -22.620025930500
     188   63  2   0.42380    -85.929555060500   -173.912693223000    -22.438692255600
     189   63  2   0.42380    -85.402093527000   -172.410009806000    -22.799737095300
     190   64  1  -0.84760    -98.895788936900   -172.134082994000     35.011286157100
     191   64  2   0.42380    -99.459723732400   -172.670532980000     34.383433499500
     192   64  2   0.42380    -98.817617663500   -172.616212026000     35.883891937900
     193   65  1  -0.84760    -70.202094396200    141.614502375000   -143.119879351000
     194   65  2   0.42380    -71.154558981400    141.377902745000   -143.311795555000
     195   65  2   0.42380    -69.833835087300    142.154616428000   -143.876623621000
     196   66  1  -0.84760   -100.526486106000     76.069343776100   -119.477127183000
     197   66  2   0.42380   -100.422597888000     75.166218070500   -119.060508415000
     198   66  2   0.42380   -101.054897562000     76.659274272900   -118.866583702000
     199   67  1  -0.84760    -78.452721243700    -31.604365177500   -101.147177649000
     200   67  2   0.42380    -78.735135187100    -32.462387445400   -100.718178637000
     201   67  2   0.42380    -77.979110665400    -31.801021915300   -102.005675842000
     202   68  1  -0.84760     -3.102024647840    175.487245823000    143.002461987000
     203   68  2   0.42380     -2.718012141870    175.430978060000    143.924073800000
     204   68  2   0.42380     -3.932689121700    174.932668824000    142.953056687000
     205   69  1  -0.84760   -165.780637806000   -160.690549825000     81.258993870200
     206   69  2   0.42380   -164.795809978000   -160.549765609000     81.360452985200
     207   69  2   0.42380   -166.146457177000   -161.101036061000     82.094264627600
     208   70  1  -0.84760   -105.353227419000    -30.408442512800     91.929345372000
     209   70  2   0.42380   -104.880959223000    -29.887446013700     91.218342278200
     210   70  2   0.42380   -105.498771216000    -31.346277385800     91.614253712500
     211   71  1  -0.84760    -24.925152964900   -143.259689063000     43.570798473400
     212   71  2   0.42380    -24.975598320500   -142.331168307000     43.202960912100
     213   71  2   0.42380    -25.735909407000   -143.773687946000     43.290657188100
     214   72  1  -0.84760    130.808041981000   -125.395134557000     27.227407155900
     215   72  2   0.42380    130.829272251000   -124.947199704000     26.333593057000
     216   72  2   0.42380    130.539180657000   -124.732213164000     27.926155190700
     217   73  1  -0.84760    105.757925109000      7.591637734940    158.729022895000
     218   73  2   0.42380    105.299235955000      7.650986115380    157.842410223000
     219   73  2   0.42380    105.640379751000      8.452886259000    159.223425634000
     220   74  1  -0.84760    -10.318140315200    -56.410306143300     49.353972011500
     221   74  2   0.42380    -11.050801170000    -55.979914526000     49.881201684000
     222   74  2   0.42380    -10.203445837900    -55.926594496100     48.486292220800
     223   75  1  -0.84760    146.513123916000     48.137855433800   -151.585526654000
     224   75  2   0.42380    147.507462708000     48.122904262100   -151.690725653000
     225   75  2   0.42380    146.220917776000     49.053410502200   -151.309167308000
     226   76  1  -0.84760    -12.989968877700    -89.935493072000   -119.163991055000
     227   76  2   0.42380    -13.481349666300    -90.054402388400   -120.026780424000
     228   76  2   0.42380    -13.348963537900    -89.135341892700   -118.683490353000
     229   77  1  -0.84760    100.999383644000    -96.220378450600     35.888761189000
     230   77  2   0.42380    100.470410718000    -96.125144124000     36.732039355600
     231   77  2   0.42380    101.965271935000    -96.348425898100     36.113847083900
     232   78  1  -0.84760    -15.982001293900     61.895268028500   -102.904875681000
     233   78  2   0.42380    -16.883326965100     61.983399712500   -102.480794509000
     234   78  2   0.42380    -15.586116905000     61.008791898600   -102.665218380000
     235   79  1  -0.84760    100.037183769000     35.937907212800   -164.786963716000
     236   79  2   0.42380    100.224406122000     35.066743317900   -164.333068069000
     237   79  2   0.42380    100.397812006000     36.687323642600   -164.231695952000
     238   80  1  -0.84760     -3.139383105030   -139.008209226000    -61.597487338100
     239   80  2   0.42380     -3.956477904840   -138.718858913000    -62.096117947400
     240   80  2   0.42380     -2.880858201270   -138.299288189000    -60.941289321100
     241   81  1  -0.84760    176.887338525000    -97.768161071900    162.755535227000
     242   81  2   0.42380    176.038809124000    -98.066340689600    162.318400498000
     243   81  2   0.42380    177.275964648000    -97.003223829900    162.241880915000
     244   82  1  -0.84760     58.603628133800    -55.053474144300    -58.704170687000
     245   82  2   0.42380     57.899850172400    -55.381117314200    -58.073816394400
     246   82  2   0.42380     58.871205672900    -55.794886120100    -59.319565310500
     247   83  1  -0.84760    138.976979209000     57.110265826500    135.312042832000
     248   83  2   0.42380    138.492744096000     56.769782089800    136.118012546000
     249   83  2   0.42380    138.332513178000     57.582828390600    134.710920417000
     250   84  1  -0.84760    146.201945991000   -172.238777364000    167.252213182000
     251   84  2   0.42380    146.781582420000   -173.003239357000    166.970043958000
     252   84  2   0.42380    146.284560628000   -171.495209394000    166.588676074000
     253   85  1  -0.84760     90.062070631700    -56.962102473800    -75.152584806500
     254   85  2   0.42380     90.061423758500    -57.791868462700    -74.594473719700
     255   85  2   0.42380     89.121467519700    -56.650793483400    -75.288056199200
     256   86  1  -0.84760   -114.709851356000     50.423457180200     26.994458162200
     257   86  2   0.42380   -114.437447811000     49.544753472200     26.602442726000
     258   86  2   0.42380   -114.333965153000     50.507603231000     27.917295636600
     259   87  1  -0.84760     69.775475873600    119.090963512000    -30.745425510100
     260   87  2   0.42380     70.668221611000    119.242031273000    -30.320945145100
     261   87  2   0.42380     69.715191290900    119.619732752000    -31.592047539400
     262   88  1  -0.84760    154.235178385000   -104.065068060000      3.476872685520
     263   88  2   0.42380    153.346418930000   -104.430254159000      3.753902908440
     264   88  2   0.42380    154.115304598000   -103.454425043000      2.694092141010
     265   89  1  -0.84760     69.263467245100    100.640498859000    -51.932637500900
     266   89  2   0.42380     69.181580951200    100.445486106000    -50.955261083800
     267   89  2   0.42380     69.626477292800    101.563668523000    -52.059055367800
     268   90  1  -0.84760     63.977445406700     76.706085205500     99.619952201500
     269   90  2   0.42380     63.330557876200     76.105654966800    100.090079898000
     270   90  2   0.42380     64.260725720600     77.439682117200    100.237680163000
     271   91  1  -0.84760    -28.644702159400    160.605778115000    -96.202580748800
     272   91  2   0.42380    -27.683739897300    160.866018698000    -96.296529512400
     273   91  2   0.42380    -28.918539762700    160.682268130000    -95.243851253700
     274   92  1  -0.84760     -3.804651127870     39.691739960500    -78.809637802500
     275   92  2   0.42380     -4.610449305410     39.655118112800    -79.400694599500
     276   92  2   0.42380     -3.198530847350     40.425121399400    -79.117484957100
     277   93  1  -0.84760   -176.281957259000    163.999465021000    168.399162351000
     278   93  2   0.42380   -176.819968145000    164.270307861000    169.197403193000
     279   93  2   0.42380   -175.884106114000    163.095595701000    168.556435101000
     280   94  1  -0.84760    100.458346794000    147.951161234000    169.638261896000
     281   94  2   0.42380    100.909378443000    148.808011897000    169.388507230000
     282   94  2   0.42380    100.801432007000    147.212457907000    169.058080950000
     283   95  1  -0.84760   -153.595274747000    155.186676680000    -25.969430912100
     284   95  2   0.42380   -153.102015432000    155.892198248000    -25.460574777700
     285   95  2   0.42380   -153.097229044000    154.971998833000    -26.809587980700
     286   96  1  -0.84760    -80.564120436100    -70.979814896200   -149.720197810000
     287   96  2   0.42380    -80.653806397900    -70.114424062700   -149.227191590000
     288   96  2   0.42380    -81.418761605300    -71.494124936200   -149.648968219000
     289   97  1  -0.84760     -6.913194707210   -153.898997965000     39.620369920000
     290   97  2   0.42380     -7.518401994580   -153.405179348000     38.995976363600
     291   97  2   0.42380     -7.279088458880   -154.815100423000     39.784315180000
     292   98  1  -0.84760    165.817693472000     46.124569157000   -153.541419834000
     293   98  2   0.42380    166.751066012000     46.268443284800   -153.870229715000
     294   98  2   0.42380    165.492465563000     46.954332695100   -153.087856963000
     295   99  1  -0.84760    -64.984622387000    -73.594991958600     58.300104752000
     296   99  2   0.42380    -65.477833637100    -73.067180775800     58.991594461300
     297   99  2   0.42380    -65.495606446000    -74.428459130100     58.089800768300
     298  100  1  -0.84760   -152.723373009000      9.142315938320    -41.107405737000
     299  100  2   0.42380   -152.772149364000      9.769242100320    -40.329855446300
     300  100  2   0.42380   -151.774439127000      9.063272605010    -41.412817980600
     301  101  1  -0.84760   -143.093415393000    -52.437189191200     62.317082124200
     302  101  2   0.42380   -142.857379916000    -53.374862886100     62.572141519900
     303  101  2   0.42380   -142.265633033000    -51.948144986700     62.042105523800
     304  102  1  -0.84760    -33.154486913500    -97.440281098700      1.182038151280
     305  102  2   0.42380    -33.432275375900    -98.300358722100      0.754136232716
     306  102  2   0.42380    -33.678968789800    -96.686438973100      0.786259411201
     307  103  1  -0.84760   -161.216242650000   -140.443650516000    -27.392170749700
     308  103  2   0.42380   -160.757362139000   -141.133101445000    -26.831736905400
     309  103  2   0.42380   -161.561626400000   -140.869759771000    -28.228317249000
     310  104  1  -0.84760   -154.754289128000   -129.147310589000     94.477019498900
     311  104  2   0.42380   -154.118948047000   -129.869522214000     94.750427766500
     312  104  2   0.42380   -154.240474142000   -128.375876380000     94.101675097300
     313  105  1  -0.84760     -5.617327129590    134.627493258000     53.602023093900
     314  105  2   0.42380     -5.751058286350    134.515860371000     54.586733242300
     315  105  2   0.42380     -4.858093126100    134.050362883000     53.301217079100
     316  106  1  -0.84760   -126.346887492000    126.561864517000   -105.456477705000
     317  106  2   0.42380   -127.191048201000    126.729038723000   -105.965835618000
     318  106  2   0.42380   -126.234614921000    127.267290973000   -104.756643164000
     319  107  1  -0.84760    151.194140915000   -160.572067221000    -72.998429427600
     320  107  2   0.42380    150.194409756000   -160.551314859000    -72.988087808400
     321  107  2   0.42380    151.507134130000   -161.200353290000    -73.710673671700
     322  108  1  -0.84760   -111.169173117000   -122.953221247000    161.155996554000
     323  108  2   0.42380   -110.252050330000   -123.314249013000    160.987044652000
     324  108  2   0.42380   -111.338799678000   -122.921850470000    162.141005540000
     325  109  1  -0.84760    139.586324966000     88.136068820500   -139.194466489000
     326  109  2   0.42380    140.540201086000     88.292609160700   -138.938311324000
     327  109  2   0.42380    139.521484025000     88.024621109400   -140.186119181000
     328  110  1  -0.84760    145.944490934000    -83.291579172400    107.371754428000
     329  110  2   0.42380    145.208625137000    -82.971084634900    106.775277455000
     330  110  2   0.42380    146.295977869000    -82.524825602500    107.908919111000
     331  111  1  -0.84760    131.165928938000    155.378318078000     83.227952954100
     332  111  2   0.42380    130.769037755000    155.697263366000     84.088622049800
     333  111  2   0.42380    131.113268262000    154.380581536000     83.186136143100
     334  112  1  -0.84760    -61.778769206400   -166.613951029000   -173.238434737000
     335  112  2   0.42380    -61.982354521300   -166.008174267000   -172.469287460000
     336  112  2   0.42380    -61.852548386100   -166.102182343000   -174.094384178000
     337  113  1  -0.84760    -24.337012941800     71.312513484800    -42.504175841200
     338  113  2   0.42380    -24.252890948300     71.840699292300    -43.349127462800
     339  113  2   0.42380    -23.426533649700     71.058406929900    -42.177897865500
     340  114  1  -0.84760    126.137289250000    150.379397210000   -107.142578755000