LAMMPS Atom File

         4500 atoms
         3000 bonds
         1500 angles
           0 dihedrals
           0 impropers

           2 atom types
           1 bond types
           1 angle types

         0.0  38.6865489451 xlo xhi
         0.0  38.6865489451 ylo yhi
         0.0  38.6865489451 zlo zhi

Masses

         1   15.9994
         2   1.00794

Atoms

       1    1  1  -0.84760    -15.091200891800      5.847810271230    -16.250432003600
       2    1  2   0.42380    -15.169729880600      6.623740833190    -15.624520699300
       3    1  2   0.42380    -15.552480842400      5.053178641390    -15.855740503900
       4    2  1  -0.84760    -16.769832355900    -11.875637564000    -11.544821738700
       5    2  2   0.42380    -16.060691830400    -12.568539080000    -11.675233410600
       6    2  2   0.42380    -16.408774617600    -11.130649150200    -10.983903230500
       7    3  1  -0.84760     -7.635310489770     14.812512599200     -5.423318669670
       8    3  2   0.42380     -8.144324197870     14.798476890100     -4.562674699240
       9    3  2   0.42380     -7.312293766380     13.890005821200     -5.634603882220
      10    4  1  -0.84760     17.485321650100    -12.442046795700      5.959877066460
      11    4  2   0.42380     17.658154869900    -13.364179957500      6.305997146750
      12    4  2   0.42380     16.906228129300    -11.946219303000      6.607029128700
      13    5  1  -0.84760      2.074299826650     10.824531319300     -7.861107053480
      14    5  2   0.42380      2.745681201770     11.553328349400     -7.995650496080
      15    5  2   0.42380      2.367650520020     10.005817992900     -8.354720120490
      16    6  1  -0.84760     -6.009363074030    -12.972716457000      5.712348770950
      17    6  2   0.42380     -6.979071987940    -13.027077161500      5.474211129930
      18    6  2   0.42380     -5.876654707960    -13.302724316700      6.646952056890
      19    7  1  -0.84760    -13.280425003100     -4.020146785860     19.020661411200
      20    7  2   0.42380    -14.094552799000     -3.490014301410     18.783689934200
      21    7  2   0.42380    -13.529183109000     -4.982688007940     19.128521508400
      22    8  1  -0.84760     17.975902044000     18.270108674400    -13.665478008200
      23    8  2   0.42380     17.974445817500     17.675748375500    -12.861280448800
      24    8  2   0.42380     18.351804879000     17.772381746700    -14.447120486600
      25    9  1  -0.84760    -11.209404227800      1.304771239170     12.904988807900
      26    9  2   0.42380    -11.466414851800      2.261512302280     12.768636039900
      27    9  2   0.42380    -11.938831701900      0.711826681158     12.563884262000
      28   10  1  -0.84760    -10.556165336000    -17.707570680200      1.293250222970
      29   10  2   0.42380    -10.902520281500    -17.180276394300      2.069136160320
      30   10  2   0.42380    -10.966771474000    -17.365629982600      0.447981532691
      31   11  1  -0.84760     -2.460543408110      8.950741256840     11.234166924500
      32   11  2   0.42380     -1.766270799770      8.384726527930     11.678703618100
      33   11  2   0.42380     -3.102892840870      8.364239663690     10.740807940100
      34   12  1  -0.84760    -14.375382069100      9.075634809380     15.210068362600
      35   12  2   0.42380    -14.567784614000      8.094367393420     15.219841748200
      36   12  2   0.42380    -13.838636935500      9.318117620460     16.018218563900
      37   13  1  -0.84760    -17.070651245500     12.487014404300      8.317652039040
      38   13  2   0.42380    -16.480532213200     13.196769291100      7.932934573500
      39   13  2   0.42380    -16.534944359200     11.902095863400      8.926658141260
      40   14  1  -0.84760      4.833918511190     -1.056556764350     14.848178851500
      41   14  2   0.42380      5.466464323050     -1.565744698610     15.431799827400
      42   14  2   0.42380      4.791534449840     -1.487666958650     13.946875577500
      43   15  1  -0.84760     -8.926323033060    -15.211939700100     -3.846146374070
      44   15  2   0.42380     -9.209835396840    -14.310518197900     -4.173346641470
      45   15  2   0.42380     -9.669350317020    -15.866327952800     -3.986454855400
      46   16  1  -0.84760    -18.991663483800      6.814677451280     -0.541483393036
      47   16  2   0.42380    -18.740715304900      7.160529575770      0.362624631205
      48   16  2   0.42380    -19.986239022642      6.837738564190     -0.642911607098
      49   17  1  -0.84760      1.708422129720      2.077186307750     14.521337728000
      50   17  2   0.42380      1.450591663880      1.211506193020     14.092244043800
      51   17  2   0.42380      1.517428195490      2.033046190430     15.501935998000
      52   18  1  -0.84760     -9.440009551200      3.755090887410      4.826038287320
      53   18  2   0.42380     -8.853251767180      3.675050772620      5.631835335530
      54   18  2   0.42380    -10.377605256000      3.949381132990      5.114422744090
      55   19  1  -0.84760     10.173146577500     -3.748093134780     13.119326697500
      56   19  2   0.42380      9.996959379400     -4.645857825440     12.715623054400
      57   19  2   0.42380     10.812241736800     -3.241864387270     12.540284529400
      58   20  1  -0.84760     -0.431038990580     -1.027676110490     -2.440012236180
      59   20  2   0.42380     -0.160957739437     -1.518145714220     -3.268562588050
      60   20  2   0.42380     -0.748641393137     -0.111303486303     -2.683712723520
      61   21  1  -0.84760     -8.239895768400     16.195328993900      9.756157183480
      62   21  2   0.42380     -7.934411813850     15.949643312200     10.676112671200
      63   21  2   0.42380     -7.951094354440     17.129698534700      9.547477273870
      64   22  1  -0.84760      9.282568178340     -7.664263836340     19.314236908000
      65   22  2   0.42380     10.075204090000     -8.204809465010     19.596263032542
      66   22  2   0.42380      8.904950176230     -8.042367135540     18.468989879300
      67   23  1  -0.84760    -14.886359797700      8.790865863320    -14.532580978800
      68   23  2   0.42380    -15.418593438900      9.234904223180    -15.253384201700
      69   23  2   0.42380    -14.067834626800      9.332426320560    -14.340933344200
      70   24  1  -0.84760    -11.177360755600    -15.872432427000    -17.245532964200
      71   24  2   0.42380    -11.193541039000    -14.889164416300    -17.064088158500
      72   24  2   0.42380    -11.372205236100    -16.036167924700    -18.212603962200
      73   25  1  -0.84760     13.958601380700    -11.989023697800     11.233003093100
      74   25  2   0.42380     13.686257567400    -12.790878036800     10.701158692600
      75   25  2   0.42380     14.583675171600    -12.268937628900     11.961653178600
      76   26  1  -0.84760     -6.042803421540     -5.422218401080    -11.042973554800
      77   26  2   0.42380     -6.364332493110     -6.141077073080    -10.426644693100
      78   26  2   0.42380     -5.072940241610     -5.562903076740    -11.241903779400
      79   27  1  -0.84760      9.157600762250      9.222098658850      4.252150564130
      80   27  2   0.42380      9.387429692820      9.309841550970      5.221418250350
      81   27  2   0.42380      9.673455979740      9.897250505080      3.724833411810
      82   28  1  -0.84760      7.887521182470     -0.679354754004     -0.587052997157
      83   28  2   0.42380      7.571557920460     -1.623458185250     -0.493053379282
      84   28  2   0.42380      7.267113298170     -0.069568993022     -0.093843728389
      85   29  1  -0.84760     -9.504594251830      6.773954082160     -4.380113137370
      86   29  2   0.42380     -9.891822267140      6.486924547010     -5.256280079280
      87   29  2   0.42380     -9.586366545750      7.766401644410     -4.288673932830
      88   30  1  -0.84760      1.926770558030     13.182317724700     -1.830679354960
      89   30  2   0.42380      2.858230901020     13.439412698300     -1.573222943170
      90   30  2   0.42380      1.679913055780     12.325985776400     -1.377074937060
      91   31  1  -0.84760     -1.179665918450    -15.721165941500    -14.726087311600
      92   31  2   0.42380     -0.367633345088    -15.345899972900    -14.279121370400
      93   31  2   0.42380     -1.989053290430    -15.511197748300    -14.177629984300
      94   32  1  -0.84760     13.110932893700      1.413991130850      7.244878557410
      95   32  2   0.42380     13.303854405600      0.595155928086      6.704239860170
      96   32  2   0.42380     12.425128355600      1.200156329850      7.940541416460
      97   33  1  -0.84760      3.041239067240     19.033999871400      6.646580137730
      98   33  2   0.42380      2.655762639710     19.060477853300      5.724242433680
      99   33  2   0.42380      2.523722234950     19.648638488542      7.241891567630
     100   34  1  -0.84760    -15.290305629700     -9.221518882410    -10.619250876300
     101   34  2   0.42380    -15.819769668900     -9.424764412740     -9.795625302580
     102   34  2   0.42380    -14.709067354500     -8.424805775420    -10.453690335600
     103   35  1  -0.84760     -6.542905193970     -7.768174852260     -9.967289676160
     104   35  2   0.42380     -6.746334055500     -8.745652575900    -10.023450143600
     105   35  2   0.42380     -6.600682198430     -7.469895845940     -9.014561250980
     106   36  1  -0.84760    -15.155303017000      8.293949365490      7.803076205570
     107   36  2   0.42380    -14.919272620300      9.236703821240      8.038668412580
     108   36  2   0.42380    -16.048067124800      8.276411189330      7.352893286980
     109   37  1  -0.84760     10.791754405100    -13.290058084300    -11.711189158200
     110   37  2   0.42380     10.428829459300    -14.146795838700    -12.077639569600
     111   37  2   0.42380     10.318466910700    -12.518611300600    -12.136475893800
     112   38  1  -0.84760     -0.197603248657     11.204074281900     16.808151803100
     113   38  2   0.42380     -0.208953312090     10.708838809500     17.676836442600
     114   38  2   0.42380      0.525737207797     11.894297527900     16.827399004000
     115   39  1  -0.84760      8.111021213130      2.507795845340     -0.406229309492
     116   39  2   0.42380      8.597674573100      2.071230663820      0.350460421847
     117   39  2   0.42380      7.793511332210      1.808075954360     -1.046213332480
     118   40  1  -0.84760     18.349615327700    -18.198559028300    -12.227936092700
     119   40  2   0.42380     19.093978885000    -17.668146437600    -12.633627327700
     120   40  2   0.42380     18.277965949100    -19.081416678200    -12.692079105600
     121   41  1  -0.84760      4.666432183840     14.089036222400    -17.274756929300
     122   41  2   0.42380      4.137391528870     14.781110391600    -16.783687352100
     123   41  2   0.42380      4.192737342400     13.845941695200    -18.121230938400
     124   42  1  -0.84760      7.116946692170     15.785569426200     19.001203991700
     125   42  2   0.42380      6.842531334950     15.069016369500     19.642490143642
     126   42  2   0.42380      8.068568308950     16.040206184700     19.173181954600
     127   43  1  -0.84760    -12.034371194600    -13.614365675900     13.871120501900
     128   43  2   0.42380    -12.721167355100    -13.295966993200     13.217719160700
     129   43  2   0.42380    -12.176324280400    -13.161301973600     14.751224247600
     130   44  1  -0.84760     14.501176484600    -15.315425271300    -12.255425514900
     131   44  2   0.42380     15.332851253400    -14.854828671300    -11.945316097200
     132   44  2   0.42380     13.734394014700    -14.674181316200    -12.226256454400
     133   45  1  -0.84760    -10.705301505400     -0.980214214980     -8.866151713060
     134   45  2   0.42380    -10.990089116800     -1.401557707180     -8.005125768060
     135   45  2   0.42380    -11.469959636500     -0.989102565780     -9.510526557150
     136   46  1  -0.84760     -2.906277529020      0.340386623140     -8.794465862490
     137   46  2   0.42380     -2.187750041370      0.334090606735     -8.098995798670
     138   46  2   0.42380     -3.785832136780      0.541356336969     -8.363194641460
     139   47  1  -0.84760      5.527021948310      9.039705528500     13.428717338400
     140   47  2   0.42380      4.551547588140      9.038730976100     13.208606405300
     141   47  2   0.42380      5.790095489620      8.141592610740     13.781116967900
     142   48  1  -0.84760     -1.228429530360     11.671255829000      4.387007027640
     143   48  2   0.42380     -0.257618263565     11.788367776600      4.177697983380
     144   48  2   0.42380     -1.767657952310     11.810782467500      3.556486091060
     145   49  1  -0.84760      6.488343115610    -12.525635682300      9.790561989470
     146   49  2   0.42380      6.976433797240    -13.282496162500      9.355901547130
     147   49  2   0.42380      5.802510986350    -12.889492882400     10.420833540800
     148   50  1  -0.84760      9.539479328930    -13.304119014400    -16.356530823600
     149   50  2   0.42380      8.898940297340    -12.549222532600    -16.215672558800
     150   50  2   0.42380     10.043211988600    -13.476190562000    -15.509982071200
     151   51  1  -0.84760     -4.530727306380      1.204497642620    -18.618301690600
     152   51  2   0.42380     -5.487695069340      1.138859745040    -18.900975295700
     153   51  2   0.42380     -3.948954821760      0.774900547995    -19.308944226500
     154   52  1  -0.84760    -11.047314649700      5.451235768100     -6.634695081660
     155   52  2   0.42380    -10.964851605200      5.345047799080     -7.625615846170
     156   52  2   0.42380    -11.440937851100      4.620054245380     -6.242014484260
     157   53  1  -0.84760     13.490264342300     16.675551926000     16.071536414800
     158   53  2   0.42380     13.929247217900     15.892082083900     15.631685256600
     159   53  2   0.42380     13.843796097200     16.777008525700     17.001440633900
     160   54  1  -0.84760      9.062511045900     -2.791747126090     -2.511879409130
     161   54  2   0.42380      8.628389757730     -1.916279751780     -2.299522201380
     162   54  2   0.42380      9.607976192440     -3.091816553900     -1.729302823480
     163   55  1  -0.84760     -7.690346007700     -3.622611917300      1.719421137460
     164   55  2   0.42380     -7.582629237050     -4.001452812060      0.800249404989
     165   55  2   0.42380     -7.005766633530     -4.024177091630      2.327776700630
     166   56  1  -0.84760     18.987368917300     -5.052888981290     -4.982709746730
     167   56  2   0.42380     18.402318062700     -4.312024652510     -4.652807422020
     168   56  2   0.42380     19.671318205042     -5.272471434520     -4.287010876520
     169   57  1  -0.84760     -9.399612833880     -6.780176674150     18.577511698100
     170   57  2   0.42380     -8.412670211070     -6.628253542240     18.523998884100
     171   57  2   0.42380     -9.729131931710     -6.514361080800     19.483469332042
     172   58  1  -0.84760      2.906549769370      8.773754150840     10.264143351300
     173   58  2   0.42380      2.105727537340      9.160986589410     10.721018379300
     174   58  2   0.42380      3.730201782070      9.246104339450     10.577962823700
     175   59  1  -0.84760     -6.903997703500      1.731832742130     18.442045917100
     176   59  2   0.42380     -6.194968693110      1.081925270450     18.168370670400
     177   59  2   0.42380     -6.642978314690      2.652148601320     18.150691154000
     178   60  1  -0.84760    -13.587296141800      3.478919883760     -4.887451216250
     179   60  2   0.42380    -14.330530394700      4.004603576790     -4.473616103870
     180   60  2   0.42380    -13.427913372800      3.804024203170     -5.819601587410
     181   61  1  -0.84760     -1.340497802920     16.035085032700     14.138490792600
     182   61  2   0.42380     -0.753679504168     16.149598996500     14.940071004600
     183   61  2   0.42380     -1.260037742620     16.838804819900     13.548948018500
     184   62  1  -0.84760     -9.674983378160    -18.617959431900     -1.779691837340
     185   62  2   0.42380     -9.280871844520    -18.710577661000     -0.865307912130
     186   62  2   0.42380     -9.218010983320    -19.250321356200     -2.405227309640
     187   63  1  -0.84760    -10.870627900800     18.817274376900      3.332340543690
     188   63  2   0.42380    -10.706275534100     18.034856500000      3.933015635110
     189   63  2   0.42380    -10.415620932500     18.665249907400      2.454925465460
     190   64  1  -0.84760     -8.716663798440     15.089099480600    -16.530521788700
     191   64  2   0.42380     -9.070963497570     15.991177755200    -16.776949282300
     192   64  2   0.42380     -7.904876756410     14.888614862100    -17.078981191200
     193   65  1  -0.84760    -12.098065759800     10.705209361200    -13.408833183000
     194   65  2   0.42380    -11.780809319600     11.562378585400    -13.814553865700
     195   65  2   0.42380    -11.529106204000     10.480160051900    -12.617860470300
     196   66  1  -0.84760     -7.341008057700     -3.631336368480     -8.855866108260
     197   66  2   0.42380     -7.043990676050     -4.069036431370     -8.007220522660
     198   66  2   0.42380     -6.539896491810     -3.372773217380     -9.395648801470
     199   67  1  -0.84760      0.988443254351    -18.263816925400     14.483220918700
     200   67  2   0.42380      0.371405514856    -18.432503531200     13.714579742900
     201   67  2   0.42380      1.669188386120    -18.994790284000     14.530802581300
     202   68  1  -0.84760    -17.253974165100    -16.028250612000      8.373827040470
     203   68  2   0.42380    -17.426892522600    -15.732470055500      9.313301949150
     204   68  2   0.42380    -16.268772633700    -16.035218556200      8.202568784260
     205   69  1  -0.84760    -12.432804638800     -3.758797703100     13.692255889700
     206   69  2   0.42380    -12.265512771600     -3.021524802150     13.037701002300
     207   69  2   0.42380    -11.604606141000     -3.923121714630     14.228058901500
     208   70  1  -0.84760     -1.620971952410    -13.349285546500      3.162091376280
     209   70  2   0.42380     -1.638829717770    -14.309520396800      2.883469531190
     210   70  2   0.42380     -0.882297891598    -12.876498751800      2.681640256370
     211   71  1  -0.84760     16.398784328800    -15.511877266100      1.989664236180
     212   71  2   0.42380     17.201299054700    -14.993628038100      1.694049871890
     213   71  2   0.42380     15.573982527700    -14.970091857200      1.827891062870
     214   72  1  -0.84760     13.805632858900      3.635924771300    -19.316875450600
     215   72  2   0.42380     13.272072867300      2.890060324700    -19.715623444542
     216   72  2   0.42380     14.664810124200      3.274534318520    -18.954644353900
     217   73  1  -0.84760     -0.989403848225     -5.812826347760      5.682741934850
     218   73  2   0.42380     -1.059983585610     -5.117465400520      4.967555488020
     219   73  2   0.42380     -0.160434267769     -5.655892960030      6.219567182480
     220   74  1  -0.84760    -18.978154789400      8.127098484690     18.412828490000
     221   74  2   0.42380    -18.396685531600      7.721104923410     17.707801731300
     222   74  2   0.42380    -19.039413247500      9.114437196330     18.266508054500
     223   75  1  -0.84760      0.944161142256     -8.838230125320    -18.231535978900
     224   75  2   0.42380      1.588200080950     -9.164559437360    -17.539637846600
     225   75  2   0.42380      0.057092409821     -9.279413531520    -18.095645338900
     226   76  1  -0.84760     13.641906780300    -11.681720187000      5.648774197170
     227   76  2   0.42380     14.127953371900    -12.433184624200      5.202612891700
     228   76  2   0.42380     12.673903805000    -11.716742337500      5.400291423510
     229   77  1  -0.84760     -5.860043670160      4.863578582540     -9.254790830330
     230   77  2   0.42380     -6.776258007040      4.867460676370     -9.655460542510
     231   77  2   0.42380     -5.807845740010      4.156975867320     -8.549108197040
     232   78  1  -0.84760      9.854800733650      5.691952683230    -18.417638595400
     233   78  2   0.42380      8.873815942600      5.499201794410    -18.440352788900
     234   78  2   0.42380     10.231391877400      5.400936327110    -17.538156593900
     235   79  1  -0.84760     -0.282754025818    -15.297309008400     -6.395201287370
     236   79  2   0.42380      0.400963292843    -15.383518752500     -5.670564476150
     237   79  2   0.42380      0.040998002435    -15.767004751800     -7.216523716620
     238   80  1  -0.84760     17.643350408500    -10.828422986900     17.699583206900
     239   80  2   0.42380     18.429500454600    -11.446445904100     17.703555457400
     240   80  2   0.42380     16.853284133200    -11.296640504700     17.303896921300
     241   81  1  -0.84760      6.218666719030     -5.875261943590     -6.292886426950
     242   81  2   0.42380      6.527219947180     -6.791060313590     -6.035771178680
     243   81  2   0.42380      5.606296430280     -5.519421953770     -5.586925711960
     244   82  1  -0.84760     15.533526545300      4.305985927890     15.690216828200
     245   82  2   0.42380     15.334667345600      3.558376703300     16.323885090000
     246   82  2   0.42380     15.929772868800      3.934687015170     14.850499037100
     247   83  1  -0.84760     16.006473142400    -18.694976428400     18.785509338500
     248   83  2   0.42380     16.765772830800    -18.851648679700     19.417108728042
     249   83  2   0.42380     15.454082818400    -19.525642494442     18.715804126700
     250   84  1  -0.84760      9.024629960440     -6.523658511180     -7.337670431430
     251   84  2   0.42380      9.162639669660     -5.804811838180     -6.656338808150
     252   84  2   0.42380      9.909042712760     -6.802214442050     -7.712130945930
     253   85  1  -0.84760    -12.977991141200      5.166500422940      2.919522866620
     254   85  2   0.42380    -13.207108131100      4.658313215040      2.089311347400
     255   85  2   0.42380    -11.993198445700      5.338510279440      2.943935079950
     256   86  1  -0.84760      9.274973665570     13.088249606300     -0.723361032865
     257   86  2   0.42380      9.484704505270     13.437360838600     -1.636670576410
     258   86  2   0.42380     10.106036536100     13.089250812700     -0.167183450760
     259   87  1  -0.84760     17.043125121900    -11.573682733500      0.314544181867
     260   87  2   0.42380     17.950473865600    -11.189340000800      0.484834878131
     261   87  2   0.42380     16.944741214800    -11.777032317900     -0.659606501213
     262   88  1  -0.84760      7.266179075120     11.065773919200     -3.629254082850
     263   88  2   0.42380      6.485414554020     10.957877672000     -4.244693082610
     264   88  2   0.42380      7.717171162880     10.181956648800     -3.504862887620
     265   89  1  -0.84760      6.848881820240      8.538126669200     10.793185083300
     266   89  2   0.42380      7.012851433270      7.760563941710     11.400235469000
     267   89  2   0.42380      7.682764357780      8.742296181070     10.280393971800
     268   90  1  -0.84760     -4.930320534440     16.420906157500    -10.462894353200
     269   90  2   0.42380     -5.414101447010     16.486996847200     -9.590204231040
     270   90  2   0.42380     -4.379857696960     15.586156749800    -10.476462364800
     271   91  1  -0.84760     -0.396796179553      4.076878325110     -8.393335382330
     272   91  2   0.42380      0.090476774912      3.855784799430     -9.238132825950
     273   91  2   0.42380     -0.137158407256      3.427060465710     -7.678965046440
     274   92  1  -0.84760     17.952952416200     17.190291575400     18.612721387700
     275   92  2   0.42380     18.855513770100     17.465847907200     18.281886518900
     276   92  2   0.42380     18.015622278600     16.288301779400     19.039906238000
     277   93  1  -0.84760     11.038938190800     15.748936084900     18.275130392400
     278   93  2   0.42380     11.618862880200     16.509262867900     17.982571786700
     279   93  2   0.42380     11.013813805400     15.053418681700     17.557060544100
     280   94  1  -0.84760    -15.408765805100     18.301701634700     -3.903150767330
     281   94  2   0.42380    -15.829784347300     18.835322759100     -4.636630066820
     282   94  2   0.42380    -14.960298524100     18.919170070000     -3.256923385390
     283   95  1  -0.84760     -8.788660660110     -7.857648447930    -16.280507765900
     284   95  2   0.42380     -9.416899062490     -7.279315629460    -16.800938031000
     285   95  2   0.42380     -9.293842661470     -8.621749311440    -15.879333220500
     286   96  1  -0.84760     -6.966768859400     -6.228065208440      6.216957577780
     287   96  2   0.42380     -6.761354217980     -7.076019593830      6.705606925880
     288   96  2   0.42380     -6.136092423250     -5.676203671770      6.143299565490
     289   97  1  -0.84760    -17.921431046800      4.771625793110     -4.527395845440
     290   97  2   0.42380    -16.948464382700      4.747010837440     -4.297765763620
     291   97  2   0.42380    -18.308312728700      5.649624747160     -4.245544109700
     292   98  1  -0.84760     18.255134535400     -4.170226778930      5.702527129310
     293   98  2   0.42380     17.911886732700     -4.598066490460      4.866384720870
     294   98  2   0.42380     19.127875335600     -3.720443766420      5.512741098690
     295   99  1  -0.84760     -5.119986732810    -11.164768000100      2.413423019650
     296   99  2   0.42380     -5.657200597140    -11.890322264500      1.983338989010
     297   99  2   0.42380     -4.522683047220    -11.560976005600      3.110737528030
     298  100  1  -0.84760     19.131419713500    -17.363761890200     -0.225544051128
     299  100  2   0.42380     18.503997451400    -18.140499245500     -0.280502088817
     300  100  2   0.42380     19.388346037842    -17.076881065700     -1.148413628240
     301  101  1  -0.84760      0.732946210689     13.985274275400      6.967743348670
     302  101  2   0.42380      0.567986313822     13.067060679400      7.327843369020
     303  101  2   0.42380      1.165687902410     14.547048902300      7.672827667570
     304  102  1  -0.84760    -13.462736589100     13.692076764300    -11.266556562700
     305  102  2   0.42380    -14.189295524900     13.231344085700    -11.776299156200
     306  102  2   0.42380    -12.855898228000     13.008977679900    -10.860203459700
     307  103  1  -0.84760     14.864510822400    -18.057964560900     -9.335374431970
     308  103  2   0.42380     14.500680864800    -17.460294402100    -10.049809973600
     309  103  2   0.42380     15.400834764000    -18.790432943800     -9.754715221480
     310  104  1  -0.84760    -11.360865694800    -15.688447452800     18.552320444500
     311  104  2   0.42380    -10.745105711300    -16.326534864200     18.090060671000
     312  104  2   0.42380    -11.212819463100    -14.765607769200     18.196723437200
     313  105  1  -0.84760     15.410561388500     -8.050776607450     11.201565688500
     314  105  2   0.42380     14.921545222900     -7.862339395370     12.053243213600
     315  105  2   0.42380     15.611710638300     -9.028526427760     11.142031931900
     316  106  1  -0.84760     14.472947916000     17.126022735000      9.114595897520
     317  106  2   0.42380     14.616865944300     16.962407640000     10.090566031200
     318  106  2   0.42380     15.104254344200     16.559468277500      8.585003374570
     319  107  1  -0.84760     -4.389467285000    -18.367768862600    -18.084953569500
     320  107  2   0.42380     -3.788814298920    -17.588713002900    -17.905265067500
     321  107  2   0.42380     -3.875632314730    -19.218058226200    -17.971016650500
     322  108  1  -0.84760     -1.637784251310      9.573270613040    -10.713087097400
     323  108  2   0.42380     -2.484187157510      9.224637583450    -11.115650298700
     324  108  2   0.42380     -1.806487060260     10.472295816000    -10.308991753800
     325  109  1  -0.84760     14.474049019700     17.493964681900    -12.392972030500
     326  109  2   0.42380     14.913988817200     16.923915354200    -11.699072370200
     327  109  2   0.42380     14.691162532700     18.454935927000    -12.221519446700
     328  110  1  -0.84760     11.141400141300    -18.160075430600    -17.086105467300
     329  110  2   0.42380     11.533316448500    -17.246770119700    -17.196898144200
     330  110  2   0.42380     10.180725747200    -18.080512330800    -16.820070842300
     331  111  1  -0.84760     -0.670607475121     16.060495090600     -4.014157383910
     332  111  2   0.42380      0.025063419305     15.397102399100     -4.289751548570
     333  111  2   0.42380     -1.208492625320     16.330625563600     -4.812724283250
     334  112  1  -0.84760     16.806168609200     14.530628983200      4.842513579660
     335  112  2   0.42380     16.697690081000     15.072687756200      4.009204096010
     336  112  2   0.42380     16.494232815400     13.595448456900      4.674783308930
     337  113  1  -0.84760      0.739741171768     -1.417580894250      7.419877853040
     338  113  2   0.42380      1.092543371020     -1.481253129210      6.486348820450
     339  113  2   0.42380      0.576621980454     -2.336903580370      7.777981089830
     340  114  1  -0.84760      1.630590088320    -10.611437113500      0.166249965566