LAMMPS Atom File

         4500 atoms
         3000 bonds
         1500 angles
           0 dihedrals
           0 impropers

           2 atom types
           1 bond types
           1 angle types

         0.0  35.8365081052 xlo xhi
         0.0  35.8365081052 ylo yhi
         0.0  35.8365081052 zlo zhi

Masses

         1   15.9994
         2   1.00794

Atoms

       1    1  1  -0.84760    -15.106954562800      4.209040438450    -15.962538389100
       2    1  2   0.42380    -14.290778215900      3.779593807470    -16.349102435400
       3    1  2   0.42380    -14.963331275200      4.380864121870    -14.987936432800
       4    2  1  -0.84760    -15.550141756900    -10.887168086300    -10.985331700900
       5    2  2   0.42380    -15.051852065700    -10.059128205400    -10.728315477000
       6    2  2   0.42380    -15.882758026300    -11.345385172700    -10.161072324800
       7    3  1  -0.84760     -8.727622375130     14.062856752000     -8.991242752340
       8    3  2   0.42380     -8.820643754230     13.969162775600     -7.999996838440
       9    3  2   0.42380     -7.758415939870     14.117285898200     -9.231401770250
      10    4  1  -0.84760     16.129829965700    -10.785760735400      6.191551258150
      11    4  2   0.42380     15.247573544500    -10.346388178200      6.360593747540
      12    4  2   0.42380     16.040993750600    -11.430729568100      5.432523372100
      13    5  1  -0.84760      0.546735839427      6.772969598830    -10.663130597700
      14    5  2   0.42380      0.037821923358      5.997060072000    -10.290342410900
      15    5  2   0.42380      1.527080643150      6.580611849840    -10.619283565600
      16    6  1  -0.84760     -4.909188375120    -12.023462528400      5.015916646530
      17    6  2   0.42380     -4.518933735630    -12.277905797000      5.900766882110
      18    6  2   0.42380     -5.523777415030    -12.747229848100      4.702163273640
      19    7  1  -0.84760    -13.490001212300     -2.951987790430     13.312140898000
      20    7  2   0.42380    -13.392800941700     -3.782288016640     13.860915571000
      21    7  2   0.42380    -13.003202576400     -3.065963663770     12.446094370200
      22    8  1  -0.84760     16.534645709600     17.047937980800    -12.699984955200
      23    8  2   0.42380     15.636543728900     16.763695344300    -13.035572433800
      24    8  2   0.42380     16.674610178200     16.688888511300    -11.777220940900
      25    9  1  -0.84760    -11.567847664900     -0.251188726619     13.802948463200
      26    9  2   0.42380    -12.067140241300      0.081535533081     13.002947531800
      27    9  2   0.42380    -12.217439950200     -0.582934604193     14.487035106500
      28   10  1  -0.84760     -4.917808428830    -15.674172397800      0.552394059166
      29   10  2   0.42380     -5.576888171560    -16.424468644900      0.604060626529
      30   10  2   0.42380     -4.076816576320    -15.936078045700      1.025826351670
      31   11  1  -0.84760     -1.468048363020      7.015639122350     10.416604102900
      32   11  2   0.42380     -2.042836984680      7.343743718320      9.666960577940
      33   11  2   0.42380     -1.890811008920      7.255720260610     11.290464957000
      34   12  1  -0.84760    -13.786504800600      7.501669944620     12.978845106600
      35   12  2   0.42380    -14.108633730800      8.301058381880     12.471685290800
      36   12  2   0.42380    -12.792073129700      7.546070088790     13.074418528800
      37   13  1  -0.84760    -16.991025000900      9.013090541080      7.313415508970
      38   13  2   0.42380    -17.804371660400      8.907934344770      6.741218527350
      39   13  2   0.42380    -16.172879275200      8.842190534190      6.764388406610
      40   14  1  -0.84760      5.430178989430      1.283543696960     13.925516613900
      41   14  2   0.42380      6.373883838680      0.981866203117     14.061206875900
      42   14  2   0.42380      4.851050892660      0.490955537827     13.734690364300
      43   15  1  -0.84760    -12.148418001300    -11.330189563700     -0.845923103207
      44   15  2   0.42380    -12.469051027600    -10.386885372500     -0.931781506366
      45   15  2   0.42380    -11.455427095100    -11.382539140300     -0.126879901577
      46   16  1  -0.84760    -16.544535977300      5.303484431030      0.248158966243
      47   16  2   0.42380    -16.879974495000      6.241932185330      0.165716178541
      48   16  2   0.42380    -17.313839585700      4.667757468560      0.184730366519
      49   17  1  -0.84760      1.582562548700      1.924159843240     13.451549734400
      50   17  2   0.42380      2.362339944120      1.342691935890     13.219510327600
      51   17  2   0.42380      0.863515724318      1.806431211940     12.766632488500
      52   18  1  -0.84760     -5.471187795690      7.640353577580      0.793625253841
      53   18  2   0.42380     -4.943896294680      6.811498121620      0.606643152842
      54   18  2   0.42380     -5.793962159520      7.623668532680      1.739954118100
      55   19  1  -0.84760      8.183788685940     -1.772229458040     14.676402267300
      56   19  2   0.42380      9.047775723110     -1.905578270000     14.190867001900
      57   19  2   0.42380      8.078733842300     -0.805709123813     14.910500373600
      58   20  1  -0.84760     -2.516962189250      3.415182021820     -4.932926700320
      59   20  2   0.42380     -2.667856487230      2.550860012090     -4.453157615930
      60   20  2   0.42380     -2.631835614710      4.175646251600     -4.293788021050
      61   21  1  -0.84760     -7.364665825090     13.523913830900     12.215910685300
      62   21  2   0.42380     -6.698976834650     14.262749634300     12.111126031200
      63   21  2   0.42380     -7.928540343870     13.464011813600     11.392225505500
      64   22  1  -0.84760      9.734990335720     -3.687270566840    -15.874104714200
      65   22  2   0.42380      9.163247340750     -3.862753798350    -15.072658781400
      66   22  2   0.42380      9.154844761820     -3.435576102790    -16.648753673300
      67   23  1  -0.84760     17.724282758800     10.134013395700    -16.051263379500
      68   23  2   0.42380     16.729107379500     10.222988028400    -16.009917530600
      69   23  2   0.42380     17.963830182211      9.290862107470    -16.532629079400
      70   24  1  -0.84760    -12.576341327900    -13.797936166800    -16.728781291000
      71   24  2   0.42380    -11.915502023100    -13.614379018200    -16.001046321000
      72   24  2   0.42380    -12.569895529700    -14.773932490400    -16.946472880200
      73   25  1  -0.84760     12.896863456500     -7.910332530760      7.058311184330
      74   25  2   0.42380     12.394201250300     -7.441948084240      7.784910604050
      75   25  2   0.42380     13.828055238800     -8.102830742530      7.367869422860
      76   26  1  -0.84760     -5.976464028440     -6.429174411010    -11.573717751700
      77   26  2   0.42380     -5.995052549070     -7.276389465010    -11.042792974400
      78   26  2   0.42380     -5.398648902250     -5.757691894880    -11.109777119200
      79   27  1  -0.84760      8.433962672190      9.659424222440      5.794284498950
      80   27  2   0.42380      7.982309277900      9.792490276630      6.676499119470
      81   27  2   0.42380      8.021796143540      8.879627259270      5.323078122840
      82   28  1  -0.84760      6.028141978780      0.202337813750     -0.418994656391
      83   28  2   0.42380      6.097115188480     -0.624753359781     -0.976814418511
      84   28  2   0.42380      6.809289753760      0.797566751202     -0.607437394849
      85   29  1  -0.84760     -7.046249459730      7.858694498700     -3.811373486310
      86   29  2   0.42380     -6.754571619850      8.781588782860     -4.062750052400
      87   29  2   0.42380     -7.569523883090      7.458054031110     -4.563484577560
      88   30  1  -0.84760      0.921600387825     14.218769629700     -0.463779769344
      89   30  2   0.42380      1.667216767700     14.032539413900      0.176044050752
      90   30  2   0.42380      0.104088282132     13.719058311800     -0.177488736045
      91   31  1  -0.84760     -1.422482680090    -15.447711960900    -13.595982706700
      92   31  2   0.42380     -1.949799610150    -16.097104664700    -14.143911508200
      93   31  2   0.42380     -1.267791425820    -15.829053217500    -12.684582980000
      94   32  1  -0.84760     12.352359168800      1.977649913010      7.915259064970
      95   32  2   0.42380     12.282852402600      2.975139119170      7.901690975830
      96   32  2   0.42380     11.449623448300      1.578413794820      7.755013188720
      97   33  1  -0.84760      2.448204680060    -15.982952908400      7.199332472650
      98   33  2   0.42380      2.713864947560    -16.447186422900      6.354399418330
      99   33  2   0.42380      1.617091673130    -15.450222650300      7.039803033660
     100   34  1  -0.84760    -14.552136363900     -8.974827517480     -9.261459779660
     101   34  2   0.42380    -13.776441361600     -9.147525151950     -8.654440183240
     102   34  2   0.42380    -15.324749957900     -8.633496609780     -8.726145436760
     103   35  1  -0.84760     -5.278797139840     -8.915122970420    -10.049704212200
     104   35  2   0.42380     -4.965427178260     -9.378897468260     -9.221023041730
     105   35  2   0.42380     -6.273223503790     -8.814148309280    -10.019367361900
     106   36  1  -0.84760    -11.556182113500      9.146284699080     11.221197007600
     107   36  2   0.42380    -11.647414819400      8.748088523650     10.308444905900
     108   36  2   0.42380    -12.420824510000      9.050837396620     11.714434616200
     109   37  1  -0.84760      0.392882911278      9.305402974730    -16.739039486300
     110   37  2   0.42380      0.231690314023      9.664572811470    -17.658285903200
     111   37  2   0.42380     -0.234419886979      9.743590971930    -16.095236349900
     112   38  1  -0.84760      7.620583796710      2.915784672520      0.218510197373
     113   38  2   0.42380      8.188844423140      3.015982327680      1.035235543100
     114   38  2   0.42380      7.167939526610      3.784807202060      0.018727796004
     115   39  1  -0.84760     15.681540209400    -16.482721872000    -10.825104971700
     116   39  2   0.42380     16.466272647500    -16.744927207600    -10.263461523700
     117   39  2   0.42380     15.859327803100    -16.723337409900    -11.779303973200
     118   40  1  -0.84760      4.803531967680     14.211771013100    -17.135665419700
     119   40  2   0.42380      4.254737057590     13.580358049200    -16.587813418000
     120   40  2   0.42380      4.229874888850     14.970524412200    -17.444227950200
     121   41  1  -0.84760      5.992200304050     13.014642718600     15.723699475400
     122   41  2   0.42380      6.024162440060     13.050433759100     16.722547523500
     123   41  2   0.42380      5.549091985520     13.840342698200     15.374594102200
     124   42  1  -0.84760    -12.062351821500    -13.123162890200     15.275197546000
     125   42  2   0.42380    -11.830647290600    -12.226291135200     15.651938923200
     126   42  2   0.42380    -11.336198482000    -13.774666909400     15.494842351500
     127   43  1  -0.84760     13.632285181700    -12.955066079900    -11.486125808800
     128   43  2   0.42380     12.958362268800    -12.438769175800    -10.957670120700
     129   43  2   0.42380     14.538665024100    -12.830850934800    -11.082336038000
     130   44  1  -0.84760    -11.512632907600      1.419167053680    -11.140305267700
     131   44  2   0.42380    -11.762864004100      0.473398659403    -10.933166322300
     132   44  2   0.42380    -12.133001274600      2.040545229970    -10.661732126900
     133   45  1  -0.84760     -3.435920837020      1.256564961180     -9.021321451730
     134   45  2   0.42380     -3.241153566780      1.433181329610     -9.986138723990
     135   45  2   0.42380     -2.844569310360      1.827625108500     -8.451941367720
     136   46  1  -0.84760      2.972347962950      7.054311708410     12.478250037800
     137   46  2   0.42380      2.511057117450      6.915276179870     11.601962483600
     138   46  2   0.42380      3.203092399210      8.021597495340     12.583678741400
     139   47  1  -0.84760     -1.730739781400     10.569128831200      8.044444255390
     140   47  2   0.42380     -2.117684649680     11.112372166500      8.789535087170
     141   47  2   0.42380     -1.475644587450      9.665469798060      8.388430874000
     142   48  1  -0.84760      8.755601072190     -9.214963807670     10.823431109800
     143   48  2   0.42380      7.921232183290     -8.975722888770     11.320011757800
     144   48  2   0.42380      9.542056872950     -8.784275497970     11.266144169600
     145   49  1  -0.84760     11.584689936600    -12.372023659300    -15.908541354000
     146   49  2   0.42380     12.386344266000    -12.892554366900    -15.614605785300
     147   49  2   0.42380     11.068631104900    -12.073170312200    -15.105814776000
     148   50  1  -0.84760     -4.243393164840      1.060929956760    -17.219373296200
     149   50  2   0.42380     -3.420224533530      0.724986410960    -16.761622994800
     150   50  2   0.42380     -3.999757427730      1.809010111080    -17.836639616700
     151   51  1  -0.84760     -9.222049932520      6.296964365770     -9.327126683990
     152   51  2   0.42380     -9.733316289800      5.495291744290     -9.017404679810
     153   51  2   0.42380     -8.497104034780      6.008709406230     -9.952716424680
     154   52  1  -0.84760      8.133710517530     -3.278017061150     -3.338484370670
     155   52  2   0.42380      9.105602994330     -3.111003740810     -3.172557988310
     156   52  2   0.42380      7.650974032490     -3.332934423150     -2.464442283940
     157   53  1  -0.84760     -8.911244114580     -9.472400360800      4.746447430670
     158   53  2   0.42380     -8.486378402800     -9.562822776790      3.845718329530
     159   53  2   0.42380     -9.870830796790     -9.212803271090      4.637806966970
     160   54  1  -0.84760     -6.644868478640     -3.707965962620      0.847263064460
     161   54  2   0.42380     -7.291002529210     -3.472336686540      0.121322548338
     162   54  2   0.42380     -5.834590381660     -3.126525832890      0.773936526980
     163   55  1  -0.84760    -17.759198639300     -6.480982646570     -8.619390543420
     164   55  2   0.42380    -18.681945381611     -6.655559234250     -8.962991277720
     165   55  2   0.42380    -17.382303384000     -7.323088178710     -8.233633833480
     166   56  1  -0.84760     -7.246465063350     -5.540448186880     16.770114634000
     167   56  2   0.42380     -6.437128969330     -5.872591954950     17.254527272400
     168   56  2   0.42380     -7.292562791490     -5.966790892670     15.866728284400
     169   57  1  -0.84760      2.918220758510      9.132244951670      9.620913409730
     170   57  2   0.42380      3.071704882280      8.336654872660      9.034842552310
     171   57  2   0.42380      3.374424671350      9.929863382760      9.226346776190
     172   58  1  -0.84760     -7.163141676520      4.233134798380     16.862112413200
     173   58  2   0.42380     -6.763855627470      3.821067942150     17.681118858200
     174   58  2   0.42380     -6.442514105120      4.405578836910     16.190577636000
     175   59  1  -0.84760    -11.691602783500     -0.979900810422     -3.604374224870
     176   59  2   0.42380    -11.398018431700     -1.796425079850     -3.107286359550
     177   59  2   0.42380    -11.121275920600     -0.861469949725     -4.417209633010
     178   60  1  -0.84760     -1.704636760690     16.758679212100     10.251083271400
     179   60  2   0.42380     -0.757689514520     16.621008605400     10.541492839200
     180   60  2   0.42380     -1.902903268770     17.738131557800     10.214157748700
     181   61  1  -0.84760    -10.880766031400    -17.356565187600     -1.562447459430
     182   61  2   0.42380    -11.032011341100    -17.994099276411     -2.317877894230
     183   61  2   0.42380     -9.926738671720    -17.056857971900     -1.565164430480
     184   62  1  -0.84760    -10.857757094100    -16.789873981000      4.125940273830
     185   62  2   0.42380    -11.105176171900    -16.522485024900      3.194657853690
     186   62  2   0.42380    -11.513593777500    -17.464681642100      4.464337769690
     187   63  1  -0.84760     -7.557791048220     15.835263215100    -13.913578169100
     188   63  2   0.42380     -7.877223553600     15.218778693700    -14.633237609000
     189   63  2   0.42380     -8.307640988890     16.432732731900    -13.629403499400
     190   64  1  -0.84760    -11.121397425700     10.469065844900    -11.130769569900
     191   64  2   0.42380    -11.182495140500      9.536954573540    -11.487750867900
     192   64  2   0.42380    -10.501986957600     11.005561137000    -11.703921795300
     193   65  1  -0.84760     -1.171368787750    -17.298401973800     12.403767032000
     194   65  2   0.42380     -0.940137833348    -16.690250190000     13.163163933200
     195   65  2   0.42380     -0.499493237266    -18.037252270411     12.351964678700
     196   66  1  -0.84760    -11.701794376300     -2.598763253930     10.301769117000
     197   66  2   0.42380    -11.299364828400     -2.142818907540     11.095598577300
     198   66  2   0.42380    -12.415353894800     -2.017932027900      9.910019323790
     199   67  1  -0.84760     -2.437727735440    -14.255080434000      4.140691167860
     200   67  2   0.42380     -2.538893198010    -14.621499474100      5.065625022930
     201   67  2   0.42380     -2.356250552500    -13.259334069500      4.183710305040
     202   68  1  -0.84760     12.306726477500    -12.445355788100      3.461458823760
     203   68  2   0.42380     12.678262782400    -12.950586196400      4.240370249160
     204   68  2   0.42380     13.057904829400    -12.107503515800      2.894372476170
     205   69  1  -0.84760     11.429495006200      4.707367408510     14.216575777500
     206   69  2   0.42380     12.232879317700      5.149200563560     14.615771357500
     207   69  2   0.42380     11.686238071000      3.809669225450     13.858496218100
     208   70  1  -0.84760     -1.010951436980     -5.871457543790      7.253006780320
     209   70  2   0.42380     -0.851485164877     -5.255296078920      8.024314473310
     210   70  2   0.42380     -0.134741235950     -6.210757957690      6.910762842860
     211   71  1  -0.84760      1.045821449700     -7.557872377290    -13.882589304200
     212   71  2   0.42380      0.440424437245     -6.916479366860    -14.353874211100
     213   71  2   0.42380      0.962913611047     -7.429632586760    -12.894317658100
     214   72  1  -0.84760     13.210001095700     -7.461913791160      3.411424695320
     215   72  2   0.42380     13.954834309200     -8.121942330470      3.313517538830
     216   72  2   0.42380     13.554501417200     -6.541061776240      3.228801873440
     217   73  1  -0.84760     -2.216178499320      4.304119567380     -9.876248018780
     218   73  2   0.42380     -2.487012997940      4.275675296430     -8.914042428580
     219   73  2   0.42380     -2.525719551110      5.162957535630    -10.284392210900
     220   74  1  -0.84760     10.927516936300      2.725266361680    -16.739165345300
     221   74  2   0.42380     10.369385282800      2.182633339570    -16.111440516500
     222   74  2   0.42380     10.790671773300      3.697840659650    -16.551089200400
     223   75  1  -0.84760     -0.261923516424    -14.170355154800     -5.924066349110
     224   75  2   0.42380      0.487079406182    -14.301732769000     -6.573477270190
     225   75  2   0.42380      0.071984775165    -14.325482496500     -4.994313284760
     226   76  1  -0.84760    -14.662059553500    -11.442598868100     16.603735527800
     227   76  2   0.42380    -15.534974397200    -11.502835087300     17.087875253100
     228   76  2   0.42380    -13.926058049100    -11.284424895200     17.261977717200
     229   77  1  -0.84760      2.457338278500     -7.169014461850     -5.074438739150
     230   77  2   0.42380      2.307470547990     -7.613346328870     -5.957676450810
     231   77  2   0.42380      1.797769949000     -7.518836331300     -4.409161144180
     232   78  1  -0.84760     13.840015851100      5.332292773890     15.467874050900
     233   78  2   0.42380     13.762681383100      4.731222891690     16.263320074700
     234   78  2   0.42380     14.798989410400      5.579284501970     15.328716590500
     235   79  1  -0.84760     16.439020890400    -17.326040878200     16.545162156800
     236   79  2   0.42380     15.616864466900    -16.910612888900     16.155959894600
     237   79  2   0.42380     16.432820847000    -17.210112461500     17.538400376800
     238   80  1  -0.84760      8.596217947630     -4.594143575570     -6.291163795740
     239   80  2   0.42380      8.263639006680     -4.609858956370     -5.348219325030
     240   80  2   0.42380      8.809360652550     -3.653080219740     -6.553785096570
     241   81  1  -0.84760    -12.015750490100      5.442939786240      3.593370553130
     242   81  2   0.42380    -12.568888480900      4.722699035350      3.174692127730
     243   81  2   0.42380    -12.123083544000      5.410513022460      4.587064731710
     244   82  1  -0.84760      8.551892835050     12.131205291100     -2.654055828730
     245   82  2   0.42380      8.329816977270     12.706095434200     -1.866538440500
     246   82  2   0.42380      8.135375183110     12.517731933200     -3.476922890040
     247   83  1  -0.84760     16.410745357000    -10.050657008300      2.853552870190
     248   83  2   0.42380     15.877089562400     -9.539701441030      3.527448931260
     249   83  2   0.42380     17.012241713600     -9.422982657770      2.359359544950
     250   84  1  -0.84760      7.273279487300      9.869528463710     -5.082061046310
     251   84  2   0.42380      7.015972005280      9.142334275630     -5.718442592640
     252   84  2   0.42380      6.748851072320      9.773113668550     -4.236082899530
     253   85  1  -0.84760      6.191851383030      9.902597645150     10.322316553300
     254   85  2   0.42380      5.736632022180      9.012350691070     10.306964215700
     255   85  2   0.42380      6.167133494830     10.273633901800     11.250605905900
     256   86  1  -0.84760     -2.751031877760     16.176966339600     -9.701904020850
     257   86  2   0.42380     -2.747610769360     15.179097753100     -9.767069810240
     258   86  2   0.42380     -3.663795832440     16.490785271800     -9.440409009780
     259   87  1  -0.84760      0.154634222277      4.988140605410     -8.256297303140
     260   87  2   0.42380     -0.136229441285      4.197976911790     -8.795778226340
     261   87  2   0.42380      0.931308416750      4.731362768130     -7.681108344690
     262   88  1  -0.84760    -17.879127536900     16.197460930400     16.723989153400
     263   88  2   0.42380    -17.153304759600     16.252470398700     16.038310471900
     264   88  2   0.42380    -18.698198196811     16.656509545700     16.379899597000
     265   89  1  -0.84760    -14.462026067900     15.479663327100     -2.879182510520
     266   89  2   0.42380    -14.559960750500     15.561987247700     -3.870964527920
     267   89  2   0.42380    -15.108953960900     16.094550929100     -2.428186348370
     268   90  1  -0.84760    -10.431843023200     -5.422030983160     17.898792474600
     269   90  2   0.42380    -11.417294985200     -5.570287067300     17.815698768200
     270   90  2   0.42380     -9.955434629050     -6.297980525520     17.822980594300
     271   91  1  -0.84760     -6.253945407970     -7.351605310110      5.484332257940
     272   91  2   0.42380     -5.845067867230     -7.853347058460      6.246614603690
     273   91  2   0.42380     -7.165080401120     -7.032885086450      5.745580115880
     274   92  1  -0.84760    -13.927049537600     -0.198528310474     -4.736985841790
     275   92  2   0.42380    -14.810841157700     -0.466819396975     -4.353668394720
     276   92  2   0.42380    -13.253185220800     -0.914326660551     -4.553847630350
     277   93  1  -0.84760    -16.506900527000     -5.148448632620      3.575571907140
     278   93  2   0.42380    -17.123449608700     -4.807990973600      2.865673455070
     279   93  2   0.42380    -15.610508319100     -4.717114106680      3.473437014590
     280   94  1  -0.84760     -3.942828388460    -12.818032221400      0.230246271910
     281   94  2   0.42380     -3.457566704630    -12.418582965600      1.008038911520
     282   94  2   0.42380     -3.696010712030    -13.783194467800      0.143396558614
     283   95  1  -0.84760     16.085843827900    -16.549477151100     -1.694353394700
     284   95  2   0.42380     15.331852688200    -16.770606267700     -1.075807296960
     285   95  2   0.42380     16.872832611400    -16.237189389400     -1.162258470310
     286   96  1  -0.84760     -1.450298151700     13.284262932800      6.968419147760
     287   96  2   0.42380     -1.428721045910     12.418149419300      6.469037720170
     288   96  2   0.42380     -1.541169897830     13.102310398100      7.947518530290
     289   97  1  -0.84760    -12.470935817500     12.683380485500    -10.436548531400
     290   97  2   0.42380    -11.567635008400     13.040938074400    -10.673614384900
     291   97  2   0.42380    -12.388408003500     11.725838073300    -10.160320928100
     292   98  1  -0.84760     14.914888028000    -16.391853699200     -4.191576472480
     293   98  2   0.42380     15.706430674800    -16.054217900700     -3.682202046500
     294   98  2   0.42380     14.971274953600    -17.386852313900     -4.274028103120
     295   99  1  -0.84760     14.390440569700     10.417598194900    -13.461497071900
     296   99  2   0.42380     14.867387176600     10.352170757100    -12.585003384200
     297   99  2   0.42380     13.745247215900     11.181111678400    -13.433699650700
     298  100  1  -0.84760     16.377471700200     -9.962592214390      8.957924496940
     299  100  2   0.42380     16.955995490800     -9.437972507220      8.333357137410
     300  100  2   0.42380     16.847210215400    -10.806185767100      9.218108364920
     301  101  1  -0.84760     12.977663123200     14.375667250700      7.990727956900
     302  101  2   0.42380     13.523583529800     13.677299846800      7.527852294520
     303  101  2   0.42380     13.570966713300     15.129388006300      8.273386536580
     304  102  1  -0.84760     -3.877533014740     17.292116468900    -17.347725721600
     305  102  2   0.42380     -3.567847210230     17.899617804000    -18.079187839811
     306  102  2   0.42380     -4.796147042490     16.957896697700    -17.558546528400
     307  103  1  -0.84760     -0.816174075968      7.947825763700     -3.192677271500
     308  103  2   0.42380     -1.605540309730      8.541545434190     -3.036478994120
     309  103  2   0.42380     -1.068222461950      7.218723631580     -3.828980416290
     310  104  1  -0.84760     14.131380613600     17.025292237500    -14.171530680600
     311  104  2   0.42380     13.858035204000     17.780185636400    -13.575361037400
     312  104  2   0.42380     13.820367404400     17.207750200800    -15.104257797900
     313  105  1  -0.84760     10.278698169000     16.693070821100    -12.992347280700
     314  105  2   0.42380      9.285132616120     16.806325969500    -12.991473444100
     315  105  2   0.42380     10.697048276300     17.424303034300    -13.531126120500
     316  106  1  -0.84760    -12.868867132200      9.205682149280     -0.430131093404
     317  106  2   0.42380    -13.578423110900      9.844032257960     -0.131736301603
     318  106  2   0.42380    -13.259939255800      8.551419744940     -1.077435736060
     319  107  1  -0.84760      0.218500244806     17.227306023300     -2.915126028060
     320  107  2   0.42380      0.227820963244     16.919534115100     -3.866540541660
     321  107  2   0.42380      0.058481088925     18.213976334011     -2.885536034090
     322  108  1  -0.84760    -17.902768652100     16.120293557800      7.835831538730
     323  108  2   0.42380    -18.056188889011     16.321485696100      6.868368901500
     324  108  2   0.42380    -18.647200590811     16.508435585900      8.379124143800
     325  109  1  -0.84760      1.030799552610      0.152832081425      8.089239211580
     326  109  2   0.42380      1.607988815710      0.305679433874      7.287060776680
     327  109  2   0.42380      1.292700290970     -0.705961420307      8.529559236820
     328  110  1  -0.84760      1.510464399380     -9.829691779080      0.154002318660
     329  110  2   0.42380      1.888235768660     -9.040810016520      0.638723225219
     330  110  2   0.42380      2.220061144840    -10.526082479500      0.046706227572
     331  111  1  -0.84760    -11.132742945500     -7.360517494190     -4.373721498820
     332  111  2   0.42380    -10.356043514900     -7.990377170240     -4.377566359590
     333  111  2   0.42380    -11.093887550800     -6.788418231300     -3.554457993170
     334  112  1  -0.84760      9.592447256600     -2.649245620080      0.877444993631
     335  112  2   0.42380      9.995909301380     -2.474975755290      1.775692394210
     336  112  2   0.42380      9.243563080090     -1.792809418340      0.496923162806
     337  113  1  -0.84760     -4.965211680800     17.275273805800    -14.146204824600
     338  113  2   0.42380     -5.922871302080     16.996036463700    -14.216308722700
     339  113  2   0.42380     -4.381525520150     16.463429427000    -14.131400418500
     340  114  1  -0.84760    -12.258321315500     -2.433243069610    -17.296375500800