LAMMPS Atom File

         4500 atoms
         3000 bonds
         1500 angles
           0 dihedrals
           0 impropers

           2 atom types
           1 bond types
           1 angle types

         0.0  35.6545937636 xlo xhi
         0.0  35.6545937636 ylo yhi
         0.0  35.6545937636 zlo zhi

Masses

         1   15.9994
         2   1.00794

Atoms

       1    1  1  -0.84760    -17.219925783700      4.855567114730    -17.447407240600
       2    1  2   0.42380    -16.505656844600      5.293297512900    -17.993495128305
       3    1  2   0.42380    -17.836552379005      5.553848402810    -17.083848600600
       4    2  1  -0.84760    -15.472290517300    -10.824075385400    -10.949620190900
       5    2  2   0.42380    -15.273776271900     -9.928114122080    -11.346917949600
       6    2  2   0.42380    -14.908380696200    -10.959814284900    -10.135015584500
       7    3  1  -0.84760     -8.782864177210     13.670370059100     -7.168915996650
       8    3  2   0.42380     -9.664991722460     13.455588933800     -6.749726228030
       9    3  2   0.42380     -8.364093726030     14.440724981000     -6.688099395960
      10    4  1  -0.84760     14.921311857300    -12.586750977400      6.776745874180
      11    4  2   0.42380     14.374375136300    -12.267768240400      6.002723757750
      12    4  2   0.42380     14.365760612300    -13.186307712000      7.352848760880
      13    5  1  -0.84760      1.568887813120      9.419215607250     -8.661857401650
      14    5  2   0.42380      0.881705315872      9.457221995200     -9.387347394660
      15    5  2   0.42380      1.130011286970      9.164920930270     -7.800044421910
      16    6  1  -0.84760     -6.024707591660    -10.354924537200      6.941446659910
      17    6  2   0.42380     -5.687378353330     -9.512909953130      6.520471096190
      18    6  2   0.42380     -5.417121644750    -10.619829127900      7.690222243730
      19    7  1  -0.84760    -12.175988292800     -3.283073112490    -16.804415115100
      20    7  2   0.42380    -12.719155040400     -2.601116404210    -17.294216025900
      21    7  2   0.42380    -11.444792857300     -2.825842387920    -16.298160930400
      22    8  1  -0.84760    -17.466262070900     17.140461914800    -14.340208092200
      23    8  2   0.42380    -17.717682153800     18.083223493405    -14.559270977600
      24    8  2   0.42380    -16.574495040000     16.931475395700    -14.741551084400
      25    9  1  -0.84760    -11.408391849800     -0.486757957444     11.727990601500
      26    9  2   0.42380    -10.813461505300      0.314950241662     11.785626083200
      27    9  2   0.42380    -12.109939203900     -0.432993681910     12.438582405900
      28   10  1  -0.84760     -7.105736313990    -12.456164611300      1.476636755860
      29   10  2   0.42380     -6.789856140940    -12.741679260400      2.381457788660
      30   10  2   0.42380     -7.473056759010    -11.527574304600      1.529511448230
      31   11  1  -0.84760     -1.071300604680      8.752400770240      8.908297106780
      32   11  2   0.42380     -1.016739541080      7.789783569150      9.173610533690
      33   11  2   0.42380     -0.340978761507      8.960748975450      8.257742704150
      34   12  1  -0.84760    -12.568286106000      8.777761306180     12.815970259400
      35   12  2   0.42380    -11.815861959200      8.206266532930     12.488477316900
      36   12  2   0.42380    -13.350668343700      8.683715378870     12.200313376200
      37   13  1  -0.84760    -14.268586220400     11.931217713200      8.406969022680
      38   13  2   0.42380    -14.201777449400     10.965571429300      8.155843869580
      39   13  2   0.42380    -15.216347865600     12.235613415700      8.311621655890
      40   14  1  -0.84760      5.307781731520      1.919555671520     14.143085654900
      41   14  2   0.42380      5.865740102970      2.104486046450     13.334084287700
      42   14  2   0.42380      5.380000359390      0.951609394292     14.383636011800
      43   15  1  -0.84760     -8.634787397450    -13.444568697800     -3.380022406210
      44   15  2   0.42380     -7.819638103440    -13.284397991300     -2.823356462160
      45   15  2   0.42380     -8.847918432590    -14.421576536700     -3.385576184000
      46   16  1  -0.84760    -16.585231849100      7.365678082820     -0.658677808289
      47   16  2   0.42380    -17.007753544800      8.270504041410     -0.711264891414
      48   16  2   0.42380    -16.050743583600      7.198739813320     -1.487202948660
      49   17  1  -0.84760      1.488774825720      2.397283163510     12.361679450000
      50   17  2   0.42380      1.242908009170      3.365544288800     12.316736132800
      51   17  2   0.42380      2.483344764100      2.308079566530     12.415283143500
      52   18  1  -0.84760     -5.395057024130     11.080084409200      3.214521564560
      53   18  2   0.42380     -5.855823267740     11.828291013800      3.691890756620
      54   18  2   0.42380     -4.704561888850     10.676736608000      3.814960586830
      55   19  1  -0.84760      9.298086576860     -3.542351400440     12.418899677200
      56   19  2   0.42380      8.587674005820     -3.149271003870     11.835117371300
      57   19  2   0.42380      8.905854518010     -4.276956780530     12.972532179500
      58   20  1  -0.84760     -4.636289587760      0.721809522425     -3.214638930200
      59   20  2   0.42380     -4.029756330540      1.235487725970     -3.821476726560
      60   20  2   0.42380     -4.307345215720      0.796634896477     -2.273258686360
      61   21  1  -0.84760     -7.084004991190     14.978137286400      7.199577684930
      62   21  2   0.42380     -6.676546223600     15.190197916100      8.087838706270
      63   21  2   0.42380     -6.383017869730     15.036664114200      6.488809321840
      64   22  1  -0.84760      8.818428357750     -5.158975801270     17.311149446200
      65   22  2   0.42380      7.995810818840     -5.601695055470     17.667940767000
      66   22  2   0.42380      8.578326326510     -4.599032764000     16.518171004100
      67   23  1  -0.84760    -17.481551467100     10.317462242600    -16.935435665400
      68   23  2   0.42380    -17.530743991400     10.010074817500    -17.885747754405
      69   23  2   0.42380    -18.116393810105     11.077737207800    -16.797750601100
      70   24  1  -0.84760    -13.900377891400    -13.598289736600    -16.938683714300
      71   24  2   0.42380    -14.548778082700    -13.805691562100    -17.671187417100
      72   24  2   0.42380    -13.718770250800    -14.427257032900    -16.409692328100
      73   25  1  -0.84760     12.559728100700     -8.301303219050      5.023878901460
      74   25  2   0.42380     12.791086493800     -8.878225716460      4.240531133260
      75   25  2   0.42380     12.603504202500     -8.844485974560      5.862351409670
      76   26  1  -0.84760     -6.372146742900     -8.181316718220    -13.521041429900
      77   26  2   0.42380     -7.010636783220     -7.968990189670    -14.260803495500
      78   26  2   0.42380     -6.873855241530     -8.257762504490    -12.659389165900
      79   27  1  -0.84760      7.041068963370     11.162475952600      2.790854110860
      80   27  2   0.42380      6.204895085330     11.672657723200      2.589538918680
      81   27  2   0.42380      7.649469763290     11.193380683100      1.997826138910
      82   28  1  -0.84760      7.424857719060     -1.726090593040     -0.968271387614
      83   28  2   0.42380      7.305313615200     -2.717510712260     -0.915400276089
      84   28  2   0.42380      6.588085395890     -1.307841381430     -1.321654573640
      85   29  1  -0.84760     -7.986094240020      8.321789907410     -4.781483982430
      86   29  2   0.42380     -8.795397614430      8.291468497070     -4.194876225710
      87   29  2   0.42380     -8.251599797560      8.611581788620     -5.701009656080
      88   30  1  -0.84760      0.919317200805     14.156387714000     -0.452786056809
      89   30  2   0.42380      1.610206652070     14.283820556800     -1.164426862770
      90   30  2   0.42380      0.050187080304     14.545096342100     -0.758593898537
      91   31  1  -0.84760     -1.523020601390    -17.021386073700    -13.265876082600
      92   31  2   0.42380     -1.316639514570    -17.825189056300    -12.707926611700
      93   31  2   0.42380     -1.297999337120    -16.192936919600    -12.753004334700
      94   32  1  -0.84760     13.781336505300      1.472598975510      9.195562381990
      95   32  2   0.42380     13.618621582300      2.380566143160      8.809402471740
      96   32  2   0.42380     13.503315862000      1.464195637140     10.156100723600
      97   33  1  -0.84760      0.682147597881    -17.810719210800      8.249750523560
      98   33  2   0.42380      1.524698430890    -17.995430162705      7.743796021610
      99   33  2   0.42380     -0.003782133600    -17.432401046900      7.628159202570
     100   34  1  -0.84760    -12.843461580700     -6.948307914400    -10.931169890300
     101   34  2   0.42380    -11.846841352400     -6.884087947170    -10.879945712600
     102   34  2   0.42380    -13.098527383900     -7.647076492040    -11.599499083900
     103   35  1  -0.84760     -5.550773730340     -9.344537033950     -9.285134089550
     104   35  2   0.42380     -5.872923103250     -8.397853881000     -9.288418821140
     105   35  2   0.42380     -6.125332002260     -9.894244346310     -9.891520651810
     106   36  1  -0.84760      8.743736706800    -10.392907073700    -12.671748852000
     107   36  2   0.42380      9.072717745220    -11.121769094900    -12.071305990200
     108   36  2   0.42380      8.439480709450    -10.787274195400    -13.538872177400
     109   37  1  -0.84760      1.032961763770      9.206558299660     17.258222141900
     110   37  2   0.42380      0.565055158083      9.774440273520     17.935402673305
     111   37  2   0.42380      0.452042500583      8.429353984950     17.016382809200
     112   38  1  -0.84760      7.701294620970      3.422424507940     -2.061959644310
     113   38  2   0.42380      7.172253966010      4.114498677140     -1.570890067030
     114   38  2   0.42380      7.227599779530      3.179329980780     -2.908433653390
     115   39  1  -0.84760     16.880976142100     17.153665949600     -9.032390340550
     116   39  2   0.42380     15.911421151800     17.369481922500     -9.148090758070
     117   39  2   0.42380     17.120311711400     17.204268703900     -8.062772969350
     118   40  1  -0.84760      6.060373429170     12.156921744600     17.595353592400
     119   40  2   0.42380      6.301595175860     12.811059743200     16.878474559600
     120   40  2   0.42380      5.348781580030     11.540437262500     17.258331451400
     121   41  1  -0.84760      5.955339499920     14.798758993800     14.760430508400
     122   41  2   0.42380      5.509565157900     15.677349767000     14.931788289700
     123   41  2   0.42380      6.719920161940     14.683629817500     15.394592699000
     124   42  1  -0.84760    -11.762661128500    -12.247333810000     15.791453336800
     125   42  2   0.42380    -11.609853487600    -12.603784803900     16.713186765700
     126   42  2   0.42380    -10.978364462600    -12.471684471200     15.213054235300
     127   43  1  -0.84760     15.226321982100    -15.158660865900    -12.118636573300
     128   43  2   0.42380     14.811546566000    -15.111416856100    -11.209940057500
     129   43  2   0.42380     14.811863366300    -14.467393383100    -12.710559983100
     130   44  1  -0.84760    -10.416198112400      1.302387645720     -8.768745149280
     131   44  2   0.42380     -9.776700669260      1.197710122310     -8.007111617810
     132   44  2   0.42380    -11.306656749900      1.593213632730     -8.418739920490
     133   45  1  -0.84760     -6.604405701760     -0.446880719187    -10.587468710900
     134   45  2   0.42380     -7.554700571620     -0.428190223480    -10.276678869200
     135   45  2   0.42380     -6.563301878090     -0.827268320286    -11.511381990700
     136   46  1  -0.84760      1.806033544540      5.689121664060     11.168232057800
     137   46  2   0.42380      2.661134066030      5.604092899170     11.679674339300
     138   46  2   0.42380      1.621057814130      4.834158452970     10.683647816600
     139   47  1  -0.84760     -1.857964428550     12.134307374000      5.752690829790
     140   47  2   0.42380     -2.711773113360     12.164997312900      6.272372325910
     141   47  2   0.42380     -1.165958379750     12.688305509000      6.215523083250
     142   48  1  -0.84760      8.284106030020    -11.306473140900      9.893968230890
     143   48  2   0.42380      7.993968113100    -10.502115364100     10.412455025400
     144   48  2   0.42380      9.093600440060    -11.706119599800     10.324086247200
     145   49  1  -0.84760     10.798006347300     -8.847437123730    -15.595374525600
     146   49  2   0.42380     10.479247721400     -7.968298072080    -15.241104196200
     147   49  2   0.42380     11.403677896500     -9.276906430310    -14.925510293700
     148   50  1  -0.84760     -4.307955991370      2.305258697710     17.039625734300
     149   50  2   0.42380     -4.144939269190      3.291769658200     17.054514425700
     150   50  2   0.42380     -4.768556980240      2.056358784130     16.187630686200
     151   51  1  -0.84760    -11.617153684200      3.750428766770     -5.649875355750
     152   51  2   0.42380    -10.681976106000      3.896148967940     -5.972688800550
     153   51  2   0.42380    -11.949742619700      2.866903735720     -5.979675476230
     154   52  1  -0.84760      9.070020772280     12.705360351800     15.643173225300
     155   52  2   0.42380      8.315746905000     12.385895085100     15.069576784900
     156   52  2   0.42380      8.849766653740     13.608935289800     16.010651734500
     157   53  1  -0.84760      9.256025929590     -2.454103280460     -3.341092334820
     158   53  2   0.42380      9.271740929470     -2.376543999030     -2.344228454120
     159   53  2   0.42380      8.547904274040     -3.105484153290     -3.613611470750
     160   54  1  -0.84760     -9.042783043230     -5.499267639130      3.607693596590
     161   54  2   0.42380     -9.974360398320     -5.836980996960      3.742279329240
     162   54  2   0.42380     -8.536448535740     -5.566396828040      4.467413922340
     163   55  1  -0.84760     -4.598108362550     -3.673151588010      1.773351310150
     164   55  2   0.42380     -4.814022381010     -4.197059128880      0.949396198970
     165   55  2   0.42380     -3.994841819550     -2.911836921990      1.535718279200
     166   56  1  -0.84760     17.245928532900     -4.681930637970     -5.555704872170
     167   56  2   0.42380     17.517015449500     -5.599774247120     -5.265747991280
     168   56  2   0.42380     16.374101172300     -4.730260679600     -6.043127953660
     169   57  1  -0.84760     -6.184056309610     -4.316105802500     15.592884612000
     170   57  2   0.42380     -5.696883583040     -3.443131805730     15.568819378800
     171   57  2   0.42380     -5.728343843930     -4.968915838560     14.987768750800
     172   58  1  -0.84760      2.896991509050      9.091243803490      9.575950005390
     173   58  2   0.42380      2.088461951000      9.677834708180      9.529141199680
     174   58  2   0.42380      2.855040289730      8.407095459350      8.847814620720
     175   59  1  -0.84760     -7.048907810900      5.041767536780    -17.247894326600
     176   59  2   0.42380     -6.613682264350      4.473840885600    -17.946491522805
     177   59  2   0.42380     -7.874502241410      5.460808244210    -17.625781507900
     178   60  1  -0.84760    -12.809501427900     -2.556059939560     -4.555164346480
     179   60  2   0.42380    -12.609010504400     -3.528491791380     -4.674242821400
     180   60  2   0.42380    -13.791589198900     -2.402421547360     -4.664246216970
     181   61  1  -0.84760     -3.406990548950     13.220823106600     14.412931481300
     182   61  2   0.42380     -3.307336497970     12.762494903000     13.529752944400
     183   61  2   0.42380     -3.621257713070     12.544129482600     15.117328614800
     184   62  1  -0.84760     -9.279844601610     17.031044311700     -1.761644933150
     185   62  2   0.42380     -9.554579191670     17.931969004005     -1.425705051770
     186   62  2   0.42380     -9.470086984780     16.342222105100     -1.062122379290
     187   63  1  -0.84760     -9.198707762970    -16.282020393800      2.080986084170
     188   63  2   0.42380     -9.190612541130    -15.787022825700      2.949842732260
     189   63  2   0.42380     -9.522110913080    -17.216070328700      2.232515360350
     190   64  1  -0.84760    -11.225762387000     13.698040886200     17.405120273200
     191   64  2   0.42380    -10.847953923400     13.966161306400     16.518907993300
     192   64  2   0.42380    -12.179790765400     13.992025524300     17.463454531900
     193   65  1  -0.84760     -9.293495956330     11.379506220300    -13.012886654700
     194   65  2   0.42380     -9.587419334470     12.169665024600    -13.550713868400
     195   65  2   0.42380     -8.920485490770     11.691246462900    -12.138998095600
     196   66  1  -0.84760     -8.735537069760     -4.747328477620    -10.726520487100
     197   66  2   0.42380     -7.750661791120     -4.760870418170    -10.553785715400
     198   66  2   0.42380     -8.970544552480     -3.929694313030    -11.252111445900
     199   67  1  -0.84760      0.661753743153     16.814625755500     13.971082182900
     200   67  2   0.42380      0.990717340666     17.123854308100     13.078803833000
     201   67  2   0.42380     -0.336787214104     16.762157966800     13.958311598100
     202   68  1  -0.84760    -14.660075698500    -14.266617612400     10.917248630100
     203   68  2   0.42380    -15.320567459300    -14.133467849000     11.656181492000
     204   68  2   0.42380    -14.359497123100    -15.220316270000     10.906694458200
     205   69  1  -0.84760    -12.058018665300     -3.419183277470     11.054672738100
     206   69  2   0.42380    -12.261420797700     -3.096530897590     10.130268597900
     207   69  2   0.42380    -11.339606672500     -2.850716481430     11.455583838400
     208   70  1  -0.84760     -3.896483521300    -15.877695244300      4.274831203010
     209   70  2   0.42380     -4.716036751480    -15.528866487600      4.729420029710
     210   70  2   0.42380     -3.940610014130    -16.875614096100      4.227811866800
     211   71  1  -0.84760     15.801842702200    -11.191318457700      4.453368129250
     212   71  2   0.42380     15.130690064400    -11.247671569800      3.714193952530
     213   71  2   0.42380     15.784422644600    -12.038312667500      4.984684748780
     214   72  1  -0.84760     11.248482323100      1.854016797270     13.965797211600
     215   72  2   0.42380     11.004354496400      2.766164496380     14.295020812300
     216   72  2   0.42380     11.857592575300      1.413573830300     14.625338486700
     217   73  1  -0.84760     -0.911861958187     -5.357261572790      5.237372179090
     218   73  2   0.42380     -1.807906675200     -5.102661691210      4.873665201680
     219   73  2   0.42380     -0.597321124233     -4.651922112930      5.872636147950
     220   74  1  -0.84760    -16.621987903900      5.107761451110    -13.484540916800
     221   74  2   0.42380    -16.278537825200      5.979403856490    -13.134853112300
     222   74  2   0.42380    -16.872159293500      4.516387962580    -12.717930407500
     223   75  1  -0.84760      1.445556727170     -6.519496908530    -11.752312432300
     224   75  2   0.42380      0.921728139076     -5.733099026670    -11.424925838700
     225   75  2   0.42380      2.145199750040     -6.757734108620    -11.078708188700
     226   76  1  -0.84760      9.776154421450     -9.771612680460      3.657160675010
     227   76  2   0.42380      9.621866424410     -9.914757442500      2.679559124750
     228   76  2   0.42380      8.903362835170     -9.819621587540      4.142886926880
     229   77  1  -0.84760     -2.207596479460      4.274120414930     -9.825465561190
     230   77  2   0.42380     -2.542535436360      5.007756156830     -9.234200397860
     231   77  2   0.42380     -1.575530639900      3.694154706160     -9.311527285620
     232   78  1  -0.84760     12.341289984600      3.389172395900    -16.639777470800
     233   78  2   0.42380     11.394276955000      3.701418564840    -16.564487021900
     234   78  2   0.42380     12.436372364800      2.804315999340    -17.445322215900
     235   79  1  -0.84760    -17.640668966000     -9.799987827830     16.538839214800
     236   79  2   0.42380    -18.102931432805    -10.437688563900     17.154997622100
     237   79  2   0.42380    -18.317115848805     -9.200979142760     16.110343929000
     238   80  1  -0.84760      2.385175796740     -5.198020992320     -4.782142118430
     239   80  2   0.42380      1.478950609440     -4.910043213260     -4.472586455140
     240   80  2   0.42380      2.623343114990     -4.705910465280     -5.619461387110
     241   81  1  -0.84760     14.555540937800      5.247365691780     11.931372751000
     242   81  2   0.42380     15.019245551400      6.068273680400     11.598073927700
     243   81  2   0.42380     13.871138636700      4.956485959040     11.262805274000
     244   82  1  -0.84760     13.530251738000     16.546814180100    -16.700978545900
     245   82  2   0.42380     13.845617936400     15.598699197900    -16.660702728200
     246   82  2   0.42380     13.184445369200     16.821457604100    -15.803766784500
     247   83  1  -0.84760      8.287201720300     -5.486459594390     -7.065557623920
     248   83  2   0.42380      8.619230584990     -6.336248342860     -7.474966851930
     249   83  2   0.42380      8.876618483050     -4.728849692070     -7.345941495950
     250   84  1  -0.84760    -13.251217140400      5.829090439210      0.576382094631
     251   84  2   0.42380    -13.391133635000      6.411110330100     -0.224664858514
     252   84  2   0.42380    -14.075644435200      5.837092401530      1.142293398790
     253   85  1  -0.84760      8.729217063770     14.234968439000     -1.193999922930
     254   85  2   0.42380      7.755800512860     14.074830238100     -1.357755762630
     255   85  2   0.42380      9.007183952570     15.084745405500     -1.641898924740
     256   86  1  -0.84760     15.707415607100    -10.666626190800      0.289892619812
     257   86  2   0.42380     16.355406378000     -9.905347266040      0.266178501164
     258   86  2   0.42380     14.775900351400    -10.309432064600      0.358388492565
     259   87  1  -0.84760     11.742011950900     13.073669477400     -5.559035620970
     260   87  2   0.42380     12.506856398300     12.750320596500     -5.001847616480
     261   87  2   0.42380     11.303177933600     12.294682519300     -6.006924027240
     262   88  1  -0.84760      5.871770492840      7.863513209460      9.584059434370
     263   88  2   0.42380      5.033033639950      8.334236767330      9.857810824660
     264   88  2   0.42380      6.658607742330      8.455029507720      9.760115140630
     265   89  1  -0.84760     -1.480487882420     16.240896911500    -10.555291499400
     266   89  2   0.42380     -1.425534304650     15.260935902400    -10.363832561200
     267   89  2   0.42380     -2.211121235850     16.410857542400    -11.216569267700
     268   90  1  -0.84760     -0.499932184282      3.831339741470     -8.055152825290
     269   90  2   0.42380     -0.203952103074      2.876228894820     -8.067764809080
     270   90  2   0.42380      0.146315570848      4.373492849340     -7.518092450080
     271   91  1  -0.84760    -17.740355623200     16.526760242500     16.945293039500
     272   91  2   0.42380    -18.435379883305     16.472526788500     17.662230979900
     273   91  2   0.42380    -16.859771934300     16.225713874300     17.311275895500
     274   92  1  -0.84760      8.560614152520     15.402971354400     16.557400343000
     275   92  2   0.42380      8.199043318610     16.156725115700     17.106146003000
     276   92  2   0.42380      9.471518195620     15.156700336100     16.888465910200
     277   93  1  -0.84760    -15.341540772900     16.128912166100     -3.366729413510
     278   93  2   0.42380    -14.954298662200     15.525317772000     -2.669795158930
     279   93  2   0.42380    -16.182939205300     16.542689691300     -3.019113479450
     280   94  1  -0.84760     -7.181481438130     -7.335703315430    -16.418772829200
     281   94  2   0.42380     -6.504556320790     -7.439612508520    -17.147453325100
     282   94  2   0.42380     -7.359686264970     -6.363719907570    -16.265504128700
     283   95  1  -0.84760     -7.758009883810     -8.147926373160      5.679850765160
     284   95  2   0.42380     -8.193901767500     -7.629694667730      6.415672866770
     285   95  2   0.42380     -7.852244036410     -7.647977241900      4.818937999170
     286   96  1  -0.84760    -14.156999786100     -4.438762626960     -0.500551908498
     287   96  2   0.42380    -13.909759479900     -4.983951447380     -1.301577114760
     288   96  2   0.42380    -13.863943293500     -4.913684047020      0.329247788368
     289   97  1  -0.84760    -14.073779843500     -2.186484630760      5.328716638620
     290   97  2   0.42380    -14.536171516200     -2.323217629980      6.204786286520
     291   97  2   0.42380    -14.504874853600     -1.428635219640      4.839001045290
     292   98  1  -0.84760     -4.384580474680    -13.300285472200      3.024352311540
     293   98  2   0.42380     -4.230486512230    -12.547270453300      3.664058050170
     294   98  2   0.42380     -4.760223008720    -14.084969192500      3.517469078250
     295   99  1  -0.84760    -15.821313935600    -15.422728849200     -4.080900922900
     296   99  2   0.42380    -15.130765877100    -16.095641723100     -4.346102059990
     297   99  2   0.42380    -15.414481637400    -14.509227606000     -4.082621298860
     298  100  1  -0.84760      0.401973556818     13.831989105700      6.659419477680
     299  100  2   0.42380      1.272781097750     13.854635438700      6.168317278270
     300  100  2   0.42380      0.429991679846     14.483160897500      7.417832480210
     301  101  1  -0.84760    -11.734807225200     10.992754009300    -11.259399666300
     302  101  2   0.42380    -11.141259514600     10.976766816500    -12.064039663300
     303  101  2   0.42380    -11.433212329600     10.295752531200    -10.608838786400
     304  102  1  -0.84760     12.647616470600     16.164532660400     -8.050824337620
     305  102  2   0.42380     11.926648067600     16.006301153500     -7.376163421320
     306  102  2   0.42380     13.304160428200     16.825906270800     -7.688146823400
     307  103  1  -0.84760     14.008895460900      8.564019935580    -13.849817608200
     308  103  2   0.42380     14.851562325200      8.031281423830    -13.771700811100
     309  103  2   0.42380     13.556346441800      8.604477477570    -12.958996317200
     310  104  1  -0.84760     16.390801002500    -11.624512672700      8.856643512280
     311  104  2   0.42380     15.712199961700    -11.045908965400      8.404185362520
     312  104  2   0.42380     16.441005146100    -12.507157639300      8.389292031200
     313  105  1  -0.84760     11.614231030600     14.724971846000      8.818113604690
     314  105  2   0.42380     12.002710678000     15.512642502300      9.296296102150
     315  105  2   0.42380     10.636735255700     14.874343521700      8.669150144640
     316  106  1  -0.84760     -5.211267543630     16.989225831600    -17.470802484900
     317  106  2   0.42380     -6.116990006400     16.625082718700    -17.687750897500
     318  106  2   0.42380     -4.520126527080     16.286780968200    -17.640788687600
     319  107  1  -0.84760     -2.533059374870      7.048612459140     -4.333458981570
     320  107  2   0.42380     -3.531154790220      7.110111932490     -4.328626110930
     321  107  2   0.42380     -2.217911139840      6.815784331650     -5.253498466050
     322  108  1  -0.84760      7.393003868550     16.094362086300    -15.505821856100
     323  108  2   0.42380      7.575403435300     15.122940896800    -15.353929556300
     324  108  2   0.42380      6.684512375200     16.403637051800    -14.871480623400
     325  109  1  -0.84760    -12.803541808500      9.158951993470     -0.427947649235
     326  109  2   0.42380    -13.374171127200      8.685647646220      0.243144874584
     327  109  2   0.42380    -12.244630593000      9.846540979170      0.035560322560
     328  110  1  -0.84760     -2.675546600670     15.824192681700     -5.325926502450
     329  110  2   0.42380     -2.130781537080     16.581854518000     -5.685342093840
     330  110  2   0.42380     -2.502529049520     15.002364088200     -5.868754919160
     331  111  1  -0.84760     17.708763843000     15.589590437500      1.671650251310
     332  111  2   0.42380     18.702447116505     15.669061690800      1.750883274360
     333  111  2   0.42380     17.344189330000     16.404032812000      1.220242405610
     334  112  1  -0.84760      0.340227821460      1.307168773230      5.826696715440
     335  112  2   0.42380      1.207415440800      1.020816890300      5.419280181660
     336  112  2   0.42380      0.399782700626      1.234984304570      6.822308396200
     337  113  1  -0.84760      1.502796935350     -9.779794007150      0.153220567538
     338  113  2   0.42380      2.477758315810     -9.993279910140      0.215462641943
     339  113  2   0.42380      1.331055200830     -9.243816190550     -0.673358259157
     340  114  1  -0.84760    -10.117466309300     -6.865421366280     -8.494776384160