LAMMPS Atom File

         4500 atoms
         3000 bonds
         1500 angles
           0 dihedrals
           0 impropers

           2 atom types
           1 bond types
           1 angle types

         0.0  164.940467806 xlo xhi
         0.0  164.940467806 ylo yhi
         0.0  164.940467806 zlo zhi

Masses

         1   15.9994
         2   1.00794

Atoms

       1    1  1  -0.84760    -52.515763551000     23.614388589000    -57.644261715000
       2    1  2   0.42380    -52.067059947000     22.721360007800    -57.678394234000
       3    1  2   0.42380    -52.663314370000     23.949063373700    -58.574971951500
       4    2  1  -0.84760    -69.922492927600    -54.187305772200    -36.910393932500
       5    2  2   0.42380    -69.610904023400    -54.140721801300    -37.859468370300
       6    2  2   0.42380    -70.852518477700    -54.553741764300    -36.882516707200
       7    3  1  -0.84760    -35.361776399000     53.578458354500    -14.906679836500
       8    3  2   0.42380    -35.689286245500     54.515723500100    -15.026142580300
       9    3  2   0.42380    -36.143223118000     52.957249711100    -14.848021105000
      10    4  1  -0.84760     70.780398325600    -46.770993243200     26.833923226200
      11    4  2   0.42380     70.761589211300    -47.318289316000     25.997195536900
      12    4  2   0.42380     69.888002845300    -46.817523457500     27.282772026800
      13    5  1  -0.84760      1.666189507390     39.696293127800    -36.875574808800
      14    5  2   0.42380      1.284486729880     38.876809088700    -36.448083406100
      15    5  2   0.42380      2.259786620950     40.167037391800    -36.222855646600
      16    6  1  -0.84760    -24.382418575500    -59.505684987100     32.659038147400
      17    6  2   0.42380    -24.616283467800    -58.558921037000     32.437802447400
      18    6  2   0.42380    -24.363528779700    -59.620999348200     33.652187569100
      19    7  1  -0.84760    -62.078883209300    -27.012276686900     78.567313103700
      20    7  2   0.42380    -61.968524713300    -26.489558368100     77.721980884100
      21    7  2   0.42380    -62.967432791000    -26.802503242300     78.975326268700
      22    8  1  -0.84760     79.621349409500     73.334096505100    -62.215989922600
      23    8  2   0.42380     78.705278366500     72.941567708100    -62.298056892400
      24    8  2   0.42380     79.558890022800     74.242637815100    -61.802890039900
      25    9  1  -0.84760    -48.859588281800      3.829358554500     69.978072004600
      26    9  2   0.42380    -48.526677733600      3.066940357760     70.532949522800
      27    9  2   0.42380    -48.576957180200      4.693296927260     70.394881491600
      28   10  1  -0.84760    -39.042662542900    -75.572290372100      4.309894693530
      29   10  2   0.42380    -39.694442905200    -75.424058939800      3.566113945080
      30   10  2   0.42380    -38.118789151100    -75.644423311800      3.934055904990
      31   11  1  -0.84760     -0.943943584441     36.429821048900     50.263466201300
      32   11  2   0.42380     -1.525323654940     37.176369090700     50.586983179000
      33   11  2   0.42380     -1.425281481990     35.916354288900     49.553067922300
      34   12  1  -0.84760    -58.674066453200     40.464551283500     63.433053796600
      35   12  2   0.42380    -59.017287640900     39.622609535700     63.016720625300
      36   12  2   0.42380    -57.698507207100     40.560498857500     63.235371677000
      37   13  1  -0.84760    -63.283955564500     61.374840074100     37.442237320400
      38   13  2   0.42380    -63.880287199900     60.730250863300     36.963809342600
      39   13  2   0.42380    -62.409270471700     60.933697474000     37.643033721600
      40   14  1  -0.84760     39.423001262200     10.567111824600     69.563403550800
      41   14  2   0.42380     39.406583939700     11.027750049800     70.450839687700
      42   14  2   0.42380     38.607251869200     10.818250108500     69.042363734500
      43   15  1  -0.84760    -33.938352413200    -66.381754661200    -14.494790109700
      44   15  2   0.42380    -33.122764079800    -65.855104676800    -14.734488804600
      45   15  2   0.42380    -34.641830507900    -66.242414412500    -15.191713968800
      46   16  1  -0.84760    -80.952730612100     35.305489416400    -12.197644335500
      47   16  2   0.42380    -81.191688302700     35.119442348200    -13.150684581500
      48   16  2   0.42380    -79.982469210300     35.111208609900    -12.053256730900
      49   17  1  -0.84760      9.851337184210     11.480704766400     62.951636226700
      50   17  2   0.42380     10.295078234900     10.698517962000     63.388989268200
      51   17  2   0.42380     10.114614337700     12.321088272400     63.425387958400
      52   18  1  -0.84760    -42.237882354600     15.965198552900     22.998846984900
      53   18  2   0.42380    -42.885925727300     15.354119172200     22.544290302300
      54   18  2   0.42380    -42.641155227000     16.306846427900     23.847756709100
      55   19  1  -0.84760     38.811509309700    -11.263436412700     66.781841066200
      56   19  2   0.42380     38.756172021400    -10.959862669400     65.830641420000
      57   19  2   0.42380     39.738981971600    -11.582719444700     66.976399044600
      58   20  1  -0.84760    -12.641127477100      2.736448777410    -16.307304024300
      59   20  2   0.42380    -13.389286683500      2.606776377990    -15.656579143400
      60   20  2   0.42380    -13.016889511600      2.952226572460    -17.208549183300
      61   21  1  -0.84760    -39.543499270500     74.531099859600     49.724192655200
      62   21  2   0.42380    -39.904707153000     75.274379098900     50.287277762600
      63   21  2   0.42380    -38.561090759100     74.661413169800     49.590431831900
      64   22  1  -0.84760     31.693035912300    -27.369602675400    -82.335836546200
      65   22  2   0.42380     32.430186153700    -27.553977129900    -82.985925449477
      66   22  2   0.42380     30.937900120300    -26.915109320800    -82.808283078777
      67   23  1  -0.84760    -68.727058970600     46.128153857500    -58.998523643700
      68   23  2   0.42380    -69.699385356800     45.944430375600    -59.142839550700
      69   23  2   0.42380    -68.561469937000     47.112566281700    -59.057789579700
      70   24  1  -0.84760    -53.975669532600    -60.241356767300     80.196952112800
      71   24  2   0.42380    -53.616412780200    -59.983247071500     81.093787644400
      72   24  2   0.42380    -54.970968919000    -60.144514377500     80.196125671300
      73   25  1  -0.84760     61.857103896600    -45.464447523900     32.978742047200
      74   25  2   0.42380     61.710255785200    -46.079514169000     33.753421758100
      75   25  2   0.42380     62.479787679400    -45.894519171900     32.325057655300
      76   26  1  -0.84760    -22.768188591800    -26.126340514900    -51.777208434900
      77   26  2   0.42380    -22.253642078400    -25.282042625100    -51.926884615100
      78   26  2   0.42380    -22.952999210700    -26.235341448400    -50.800497714300
      79   27  1  -0.84760     39.795527161000     44.202699892000     10.546897991900
      80   27  2   0.42380     40.235218300100     44.892813883500     11.121714815800
      81   27  2   0.42380     40.423565085900     43.925105550900      9.819911233670
      82   28  1  -0.84760     30.537206777500     -2.478994139950     -0.214837057037
      83   28  2   0.42380     29.944846071100     -2.665421330120      0.568970123470
      84   28  2   0.42380     31.209588559600     -3.213484702350     -0.306632225130
      85   29  1  -0.84760    -25.619139186100     34.829838330300    -11.187818978900
      86   29  2   0.42380    -25.033115043700     35.590698679800    -10.909130563300
      87   29  2   0.42380    -25.296998901200     34.463367932000    -12.060702180700
      88   30  1  -0.84760      0.135769169701     58.074561676300    -10.239325199400
      89   30  2   0.42380      0.238193194379     57.183765495100     -9.796615946440
      90   30  2   0.42380     -0.835690755544     58.270850744900    -10.372502581900
      91   31  1  -0.84760    -11.496297548100    -75.493043051400    -57.102725538300
      92   31  2   0.42380    -11.248938928500    -76.347381793300    -56.645648928300
      93   31  2   0.42380    -12.383416287700    -75.599961321500    -57.551711980600
      94   32  1  -0.84760     61.384201790400     14.106740500700     37.505723505900
      95   32  2   0.42380     60.824461519200     14.932083521300     37.431563360300
      96   32  2   0.42380     61.407393541300     13.639219081500     36.622046039100
      97   33  1  -0.84760     12.707932386600     82.243643079100     28.736436351300
      98   33  2   0.42380     12.101615001000     82.467778161400     27.973453590800
      99   33  2   0.42380     13.095040744900     83.085312465177     29.112919768600
     100   34  1  -0.84760    -60.088053896800    -42.202059781800    -39.571025079300
     101   34  2   0.42380    -59.718020542500    -42.196285881000    -40.500025606100
     102   34  2   0.42380    -60.896143551100    -42.790179639900    -39.537766350600
     103   35  1  -0.84760    -32.372234976500    -36.082367621500    -40.602211667600
     104   35  2   0.42380    -32.874897182700    -35.613983175000    -39.875612247900
     105   35  2   0.42380    -31.441043194200    -36.274865833300    -40.292653429100
     106   36  1  -0.84760    -52.205017603600     40.573092732200     37.328084525400
     107   36  2   0.42380    -52.928309617000     41.048529544400     37.828892373800
     108   36  2   0.42380    -52.422822949500     40.568737975200     36.352102011500
     109   37  1  -0.84760     33.874387523500    -68.695017377100    -54.453573464100
     110   37  2   0.42380     34.050229006500    -69.486325868600    -55.039159191600
     111   37  2   0.42380     33.799241461200    -68.994387419300    -53.502400163800
     112   38  1  -0.84760     -0.623459291114     37.192199728100     78.511950962200
     113   38  2   0.42380     -1.614459514100     37.066624349100     78.465589531800
     114   38  2   0.42380     -0.333342959356     37.203695689900     79.468873298100
     115   39  1  -0.84760     37.644721065700     14.926768007600     -7.788695480110
     116   39  2   0.42380     36.695549101400     14.887028885800     -7.476456173980
     117   39  2   0.42380     38.082553671000     14.040425258100     -7.638033142110
     118   40  1  -0.84760     81.172617603900    -79.157854512200    -58.751747885500
     119   40  2   0.42380     81.895243320100    -79.559898425500    -58.189455465100
     120   40  2   0.42380     80.766089449600    -78.382834443400    -58.267931026900
     121   41  1  -0.84760     17.093742045800     58.980461038600    -74.398058639700
     122   41  2   0.42380     16.458088853500     59.698765442600    -74.680872717000
     123   41  2   0.42380     17.826473812300     58.898850865100    -75.073664988100
     124   42  1  -0.84760     31.987809462700     59.700401741600     75.517571633600
     125   42  2   0.42380     31.393428524000     60.496528248300     75.631122877200
     126   42  2   0.42380     32.905374543800     59.919454656300     75.849369979800
     127   43  1  -0.84760    -47.149241775800    -49.128874468900     62.457461804000
     128   43  2   0.42380    -47.390598627300    -48.159870677900     62.510173502900
     129   43  2   0.42380    -46.461876897500    -49.262810427200     61.743605597800
     130   44  1  -0.84760     65.589554452500    -62.150349077400    -56.435186697700
     131   44  2   0.42380     65.694830188800    -62.283725774900    -57.420644802300
     132   44  2   0.42380     64.619971159200    -62.043450226200    -56.215002972300
     133   45  1  -0.84760    -46.764878213600      4.402957910300    -41.255312224100
     134   45  2   0.42380    -46.899734169400      3.472259843070    -41.595334251100
     135   45  2   0.42380    -47.425181536800      4.591150435890    -40.528275021000
     136   46  1  -0.84760    -28.944207630100      7.257993032300    -50.280797709000
     137   46  2   0.42380    -29.433028999400      6.794694535940    -51.019991981300
     138   46  2   0.42380    -29.057203728300      8.247103535360    -50.375096672700
     139   47  1  -0.84760     19.129738181500     36.268230843000     52.441707621200
     140   47  2   0.42380     18.905736139800     36.426278595000     51.480019525500
     141   47  2   0.42380     19.320281285000     35.296962490400     52.584294832500
     142   48  1  -0.84760     -9.169393733280     46.689396467500     22.157788495400
     143   48  2   0.42380     -9.300711816190     47.152162581500     21.281088384300
     144   48  2   0.42380     -9.554468243150     45.767791495300     22.109189142900
     145   49  1  -0.84760     36.470828776800    -57.291213360200     43.775429328100
     146   49  2   0.42380     36.557447529900    -57.608747634100     42.831146967500
     147   49  2   0.42380     36.543807528800    -58.070926540600     44.397298653600
     148   50  1  -0.84760     50.256043768900    -52.643208014500    -74.724412901300
     149   50  2   0.42380     49.916795809100    -52.201011597900    -73.894127919600
     150   50  2   0.42380     50.459343831800    -53.603140980300    -74.531545626500
     151   51  1  -0.84760    -15.121290730000      6.954661918600    -75.644301696600
     152   51  2   0.42380    -16.018383400900      7.123388852780    -75.235944057300
     153   51  2   0.42380    -15.125445757500      7.260976873510    -76.596222851000
     154   52  1  -0.84760    -55.233579062700     20.968326575700    -24.599379705700
     155   52  2   0.42380    -55.228898028100     21.959411781200    -24.466232406500
     156   52  2   0.42380    -54.796767664600     20.524811354000    -23.816762270000
     157   53  1  -0.84760     46.843390730400     65.645541741400     65.951350284800
     158   53  2   0.42380     47.650097217900     65.673035926900     65.361037899000
     159   53  2   0.42380     46.979159248600     64.963289707100     66.669750640500
     160   54  1  -0.84760     39.022281994500    -11.855314811700     -8.808875511430
     161   54  2   0.42380     39.546279643100    -12.009901453500     -9.646449051170
     162   54  2   0.42380     38.291152961700    -11.197486544500     -8.989740954130
     163   55  1  -0.84760    -42.986917199300    -31.057385951300     20.912153453800
     164   55  2   0.42380    -43.666331569400    -31.291399113600     20.216715495700
     165   55  2   0.42380    -42.830482719300    -30.069715196200     20.906259983600
     166   56  1  -0.84760    -21.296859647200    -16.565944355300      3.578324395070
     167   56  2   0.42380    -21.686877012200    -17.422818839000      3.915448369410
     168   56  2   0.42380    -20.338738249800    -16.503136761300      3.857714076560
     169   57  1  -0.84760     76.386822242000    -22.712012411600    -28.138163897500
     170   57  2   0.42380     76.563573602700    -22.464551627600    -29.090803450000
     171   57  2   0.42380     77.156500095000    -22.421043285500    -27.569891981800
     172   58  1  -0.84760    -35.462096373300    -26.823178842400     76.778190027800
     173   58  2   0.42380    -36.068729263700    -27.246870386500     76.105522196200
     174   58  2   0.42380    -35.207312609300    -27.499133187500     77.469689092800
     175   59  1  -0.84760     14.256777779700     36.122426667100     41.832770066400
     176   59  2   0.42380     14.520903992800     35.563058738300     41.047057101100
     177   59  2   0.42380     14.243773687800     35.555349463200     42.656332048500
     178   60  1  -0.84760    -34.806263033200     30.452955425100     68.818051767000
     179   60  2   0.42380    -34.010257672000     29.860479741000     68.941938928400
     180   60  2   0.42380    -34.870270801600     30.729006918700     67.859042602100
     181   61  1  -0.84760    -59.767393851200     -5.931823178960     -5.616198057320
     182   61  2   0.42380    -60.059314385200     -5.256981895140     -6.293967666800
     183   61  2   0.42380    -60.570352869100     -6.389014477670     -5.233793909710
     184   62  1  -0.84760     -5.988549201410     69.675276787700     60.620695044400
     185   62  2   0.42380     -6.172511331450     68.767607551400     60.243475622700
     186   62  2   0.42380     -5.594436873200     69.582610958000     61.535073804400
     187   63  1  -0.84760    -36.118447025600    -81.388935803400    -12.148525830800
     188   63  2   0.42380    -36.425319467400    -82.148958439200    -11.575642860600
     189   63  2   0.42380    -36.388495088800    -80.523398317600    -11.726721487200
     190   64  1  -0.84760    -45.445892968000    -78.971059137500     17.447447254300
     191   64  2   0.42380    -45.195750122600    -79.889742856700     17.753141187800
     192   64  2   0.42380    -46.370556312800    -78.986615472600     17.066979516700
     193   65  1  -0.84760    -35.724513868800     68.766042750300    -67.948077015600
     194   65  2   0.42380    -35.906902437900     67.945010820700    -68.489040027700
     195   65  2   0.42380    -34.738261322000     68.926255715300    -67.907608265400
     196   66  1  -0.84760    -44.425497913300     32.827866307300    -54.726094181100
     197   66  2   0.42380    -44.321609695400     31.924740601700    -54.309475412900
     198   66  2   0.42380    -44.953909369000     33.417796804200    -54.115550700000
     199   67  1  -0.84760    -37.168800224400    -14.350146713000    -49.437438239800
     200   67  2   0.42380    -37.451214167900    -15.208168980900    -49.008439227800
     201   67  2   0.42380    -36.695189646100    -14.546803450800    -50.295936432900
     202   68  1  -0.84760     -1.264909241870     80.799519950400     64.088380386500
     203   68  2   0.42380     -0.880896735903     80.743252187700     65.009992199700
     204   68  2   0.42380     -2.095573715730     80.244942951000     64.038975086300
     205   69  1  -0.84760    -76.630553714600    -71.659494795000     38.517213081900
     206   69  2   0.42380    -77.234626973700    -72.375617035200     38.866876398200
     207   69  2   0.42380    -76.854464852600    -70.790102637000     38.957691319600
     208   70  1  -0.84760    -47.924577133300    -15.947818012100     43.691665942700
     209   70  2   0.42380    -48.824788287400    -15.529107669300     43.811254933500
     210   70  2   0.42380    -47.698198401400    -16.488551811500     44.501826191100
     211   71  1  -0.84760    -11.399943776200    -66.013389883300     21.041722990500
     212   71  2   0.42380    -10.557374433600    -65.815647268200     20.540749177800
     213   71  2   0.42380    -12.078860170000    -65.306201258000     20.844348274800
     214   72  1  -0.84760     61.117699335800    -59.175080369000     12.709003492800
     215   72  2   0.42380     60.316620364200    -59.065607902400     12.120540868400
     216   72  2   0.42380     61.294465342200    -58.318673543700     13.194102584400
     217   73  1  -0.84760     50.086979226700      3.857035660050     72.549950385100
     218   73  2   0.42380     50.805055902200      3.535448843560     71.932740690100
     219   73  2   0.42380     50.502326094700      4.332379315890     73.325537509800
     220   74  1  -0.84760     -5.448350738820    -27.799904831000     21.383838795000
     221   74  2   0.42380     -6.181011593600    -27.369513213600     21.911068467600
     222   74  2   0.42380     -5.333656261470    -27.316193183700     20.516159004300
     223   75  1  -0.84760     69.232880716000     23.683209704300    -69.473309647300
     224   75  2   0.42380     69.943380589700     23.969582823700    -70.116100722200
     225   75  2   0.42380     69.639200976600     23.111999895500    -68.760131408600
     226   76  1  -0.84760     -5.965891365730    -43.054947346800    -53.398589332800
     227   76  2   0.42380     -6.457272154410    -43.173856663200    -54.261378701600
     228   76  2   0.42380     -6.324886025950    -42.254796167500    -52.918088631100
     229   77  1  -0.84760     49.271875704400    -42.161254722700     17.474949492800
     230   77  2   0.42380     48.370182890300    -41.893184040500     17.135703006700
     231   77  2   0.42380     49.907488305700    -41.396046346200     17.372710744800
     232   78  1  -0.84760     -4.753352053180     29.200631125000    -48.057909195500
     233   78  2   0.42380     -5.486736387710     28.997039103800    -48.706521334400
     234   78  2   0.42380     -4.032847725580     29.716992249700    -48.520774945700
     235   79  1  -0.84760     49.066946417700     17.695675463300    -76.825372022700
     236   79  2   0.42380     49.873698962200     17.373501921900    -77.320704780600
     237   79  2   0.42380     49.035679297600     18.694798033400    -76.853237003700
     238   80  1  -0.84760     -4.403663608120    -61.671001583900    -28.187764230900
     239   80  2   0.42380     -3.584138782800    -61.306435837600    -27.745643345600
     240   80  2   0.42380     -4.149471804770    -62.430472693500    -28.786588212500
     241   81  1  -0.84760    -79.876730172100    -45.932005715900     74.306090413500
     242   81  2   0.42380    -80.312525066500    -45.919453888600     73.406131935700
     243   81  2   0.42380    -80.079096121000    -46.798529162300     74.762363511000
     244   82  1  -0.84760     26.672791122300    -23.950566318900    -24.398305583400
     245   82  2   0.42380     25.864945936100    -23.561934302400    -24.841421043400
     246   82  2   0.42380     26.493161478300    -24.903603234700    -24.154474026600
     247   83  1  -0.84760     65.299467907600     26.862938903600     59.009561665800
     248   83  2   0.42380     65.647724371200     27.168477990200     58.123354408900
     249   83  2   0.42380     65.567403997100     27.517389019800     59.716601478900
     250   84  1  -0.84760     67.115300477400    -77.706846853200     79.214688018000
     251   84  2   0.42380     66.478472546400    -78.252885369000     78.670360795100
     252   84  2   0.42380     67.892416929600    -78.274231517700     79.487019915100
     253   85  1  -0.84760     42.752372589100    -26.957413600700    -32.694183731800
     254   85  2   0.42380     42.751725715900    -27.787179589600    -32.136072645000
     255   85  2   0.42380     41.811769477100    -26.646104610200    -32.829655124500
     256   86  1  -0.84760    -50.481358364800     23.258214171100     12.606858667200
     257   86  2   0.42380    -50.208954819600     22.379510463100     12.214843231000
     258   86  2   0.42380    -50.105472161400     23.342360221900     13.529696141600
     259   87  1  -0.84760     31.077400770700     55.220249288600    -14.564076205300
     260   87  2   0.42380     30.786780968400     55.456575508900    -15.491270924900
     261   87  2   0.42380     31.025578277500     56.031435900400    -13.981589544400
     262   88  1  -0.84760     71.202929756000    -48.096849747300      0.657031364189
     263   88  2   0.42380     72.037368504200    -47.854363722900      1.151917718310
     264   88  2   0.42380     71.116970994500    -47.519092063000     -0.154637995525
     265   89  1  -0.84760     29.260399393600     46.529583676000    -23.186782395700
     266   89  2   0.42380     29.178513099700     46.334570922300    -22.209405978600
     267   89  2   0.42380     29.623409441300     47.452753339800    -23.313200262600
     268   90  1  -0.84760     29.444750784400     34.769597074100     43.001581020200
     269   90  2   0.42380     28.797863253800     34.169166835400     43.471708717000
     270   90  2   0.42380     29.728031098200     35.503193985900     43.619308982100
     271   91  1  -0.84760    -14.938945619000     76.462419443200    -47.657173060100
     272   91  2   0.42380    -15.931987009300     76.437897341800    -47.772357537100
     273   91  2   0.42380    -14.640741082100     77.409187912700    -47.535914991000
     274   92  1  -0.84760     -0.751404624947     18.398612930400    -35.196806248300
     275   92  2   0.42380     -1.254297742550     18.876451132800    -35.917062566900
     276   92  2   0.42380     -1.000052715240     17.430038876900    -35.203005463300
     277   93  1  -0.84760    -81.472989943800     75.631440296900     79.104249578900
     278   93  2   0.42380    -80.878755844400     76.202892442700     78.538274067000
     279   93  2   0.42380    -82.383860461700     76.041494218700     79.150840144600
     280   94  1  -0.84760     47.080517207600     70.988247793500     79.463072564700
     281   94  2   0.42380     46.989661622100     71.644174527600     78.713735936700
     282   94  2   0.42380     47.346587358500     71.470474195700     80.297736791700
     283   95  1  -0.84760    -72.058871278800     72.346377299900     -9.551069891000
     284   95  2   0.42380    -73.034901268800     72.559586735000     -9.507398442650
     285   95  2   0.42380    -71.840205339900     71.968335109900    -10.450663860400
     286   96  1  -0.84760    -37.470537956700    -33.501158573000    -69.412099043100
     287   96  2   0.42380    -36.481240854600    -33.386465892100    -69.502303437400
     288   96  2   0.42380    -37.767843023400    -33.145860592000    -68.525886291000
     289   97  1  -0.84760     -2.513599575980    -70.415581622500     19.062454671300
     290   97  2   0.42380     -3.200847588120    -71.137349252700     18.980347072100
     291   97  2   0.42380     -1.732774846070    -70.756795679800     19.585795581400
     292   98  1  -0.84760     77.780403935000     18.947632297000    -72.023498200400
     293   98  2   0.42380     78.211630775500     18.957027445200    -72.925692826400
     294   98  2   0.42380     77.721417364800     19.882153691900    -71.672513376100
     295   99  1  -0.84760    -29.973896673600    -35.605188721700     29.657261058300
     296   99  2   0.42380    -29.468963021300    -35.824111570500     28.822327053100
     297   99  2   0.42380    -30.728546880600    -34.986800807700     29.437945183800
     298  100  1  -0.84760    -71.133640545500      5.046588984290    -17.039227579800
     299  100  2   0.42380    -72.129383283000      5.135369996850    -17.064013311000
     300  100  2   0.42380    -70.838998510700      4.400349813970    -17.743188520600
     301  101  1  -0.84760    -66.110063638700    -21.306233669300     27.728755785500
     302  101  2   0.42380    -66.265231237400    -22.284435227600     27.866758422300
     303  101  2   0.42380    -65.212937491600    -21.056398765000     28.093100672600
     304  102  1  -0.84760    -15.738009155600    -45.986997133800      1.820853113690
     305  102  2   0.42380    -15.646480359200    -46.907645549000      1.441341618360
     306  102  2   0.42380    -14.829693414300    -45.597246520000      1.972698340950
     307  103  1  -0.84760    -75.156926229400    -63.813877924300    -12.187464487000
     308  103  2   0.42380    -74.698045718900    -64.503328853000    -11.627030642700
     309  103  2   0.42380    -75.502309979900    -64.239987178700    -13.023610986300
     310  104  1  -0.84760    -70.902399139000    -59.437738907400     44.667590612700
     311  104  2   0.42380    -70.804079785200    -59.436909387700     43.672436043500
     312  104  2   0.42380    -71.870936196700    -59.369403039700     44.906894137300
     313  105  1  -0.84760     -5.097449464110     61.279885907400     20.450578340900
     314  105  2   0.42380     -4.624315085880     61.778070590300     21.177184067400
     315  105  2   0.42380     -6.081196436140     61.446126474800     20.518445628800
     316  106  1  -0.84760    -61.127343793800     58.317498491400    -49.634995381000
     317  106  2   0.42380    -61.329219228000     58.801403030000    -50.486513264900
     318  106  2   0.42380    -60.977817761400     57.348137535300    -49.829883303500
     319  107  1  -0.84760     71.634080667100    -74.535013529100    -32.770718786500
     320  107  2   0.42380     70.952905487000    -74.992776566400    -33.342079771900
     321  107  2   0.42380     71.856683367200    -75.115627652500    -31.987561536900
     322  108  1  -0.84760    -49.806121447600    -55.516736307700     76.596412389300
     323  108  2   0.42380    -50.533562754600    -54.841974384300     76.471811058400
     324  108  2   0.42380    -50.151748302700    -56.426082588900     76.364827808600
     325  109  1  -0.84760     61.867401131800     44.845562163700    -66.362317711200
     326  109  2   0.42380     62.171656781900     44.323298100900    -67.158978710700
     327  109  2   0.42380     62.650007557600     45.313604611300    -65.951874719300
     328  110  1  -0.84760     68.264420450900    -39.845140194500     53.829140198800
     329  110  2   0.42380     67.715017418700    -40.672622711300     53.713256668700
     330  110  2   0.42380     68.724790992500    -39.627471776000     52.968512855600
     331  111  1  -0.84760     59.719275749700     69.942771225400     36.703043856600
     332  111  2   0.42380     60.112820658600     69.131741051900     37.135886163300
     333  111  2   0.42380     59.722690202000     69.825400678900     35.709961535600
     334  112  1  -0.84760    -28.744139702700    -75.986607226900    -79.273939885100
     335  112  2   0.42380    -29.669968031800    -76.067469754800    -78.904747311000
     336  112  2   0.42380    -28.320494877300    -75.148300753600    -78.930767452100
     337  113  1  -0.84760    -11.718097281900     32.607339298200    -20.046862863600
     338  113  2   0.42380    -12.241095100200     32.321140609700    -20.849710042600
     339  113  2   0.42380    -12.179799829500     32.290984995700    -19.218158626300
     340  114  1  -0.84760     57.283277600400     71.903369302600    -51.735531596000