LAMMPS Atom File

         4500 atoms
         3000 bonds
         1500 angles
           0 dihedrals
           0 impropers

           2 atom types
           1 bond types
           1 angle types

         0.0  42.1318120876 xlo xhi
         0.0  42.1318120876 ylo yhi
         0.0  42.1318120876 zlo zhi

Masses

         1   15.9994
         2   1.00794

Atoms

       1    1  1  -0.84760    -16.666429976700      4.500635608410    -16.624074326200
       2    1  2   0.42380    -16.657618445600      5.420427919270    -16.231767734600
       3    1  2   0.42380    -17.603130795200      4.252656747560    -16.871254546400
       4    2  1  -0.84760    -21.034539903500    -12.500321134900    -14.189796548900
       5    2  2   0.42380    -21.896790354606    -12.099330989700    -14.499200917000
       6    2  2   0.42380    -20.381437923000    -12.511426667100    -14.946985079100
       7    3  1  -0.84760    -10.081034675600     16.155597203400     -6.357567843640
       8    3  2   0.42380    -11.044087017000     15.939418185000     -6.196953959400
       9    3  2   0.42380     -9.822431352350     16.951788235900     -5.810572266910
      10    4  1  -0.84760     19.216354760400    -14.566902773200      5.912230263970
      11    4  2   0.42380     18.328932897700    -14.646516934700      6.366261125050
      12    4  2   0.42380     19.094368900500    -14.145574717500      5.013563407190
      13    5  1  -0.84760      0.295998478973     10.529662211700    -12.740480623300
      14    5  2   0.42380     -0.558687333576     10.052818883400    -12.535218346800
      15    5  2   0.42380      0.304102663942     11.414586276200    -12.274815805800
      16    6  1  -0.84760     -5.188816147450    -10.805147303400      2.802445028000
      17    6  2   0.42380     -4.724353999720    -10.804304606500      1.916852456220
      18    6  2   0.42380     -6.070001920780    -10.340142448600      2.717109701650
      19    7  1  -0.84760    -14.714158540500     -6.121570946370     19.037790595400
      20    7  2   0.42380    -14.621984519600     -6.719811488140     19.833788211000
      21    7  2   0.42380    -14.535464417800     -5.175825650700     19.309146904000
      22    8  1  -0.84760     18.971696784900     19.192195323700    -12.970525425700
      23    8  2   0.42380     18.633196883200     19.136951986000    -13.909868808200
      24    8  2   0.42380     19.028676249500     20.151111340100    -12.692616422500
      25    9  1  -0.84760    -14.628975462800      0.195003159963     18.431969088100
      26    9  2   0.42380    -13.880007999300      0.855080096608     18.374122943500
      27    9  2   0.42380    -15.429536693900      0.634145214735     18.839714070800
      28   10  1  -0.84760     -7.234152385950    -14.284361025000      0.801066955624
      29   10  2   0.42380     -8.151576866650    -14.367980166100      0.412042327279
      30   10  2   0.42380     -6.834042136920    -15.194344332500      0.909888684691
      31   11  1  -0.84760     -0.179805391728     10.302000705100     10.824139657900
      32   11  2   0.42380     -0.294877907614     10.422452845900      9.838112478790
      33   11  2   0.42380     -0.888842221684     10.815326524500     11.307630481900
      34   12  1  -0.84760    -14.172914464500     11.550053533300     15.010876902900
      35   12  2   0.42380    -13.640618325400     12.091516580900     15.661629227900
      36   12  2   0.42380    -14.396068680100     12.111524495300     14.214037800700
      37   13  1  -0.84760    -18.745292763600     11.376205451000     11.488950327000
      38   13  2   0.42380    -19.123381819100     12.276550067300     11.704422455300
      39   13  2   0.42380    -19.405161294200     10.859434508300     10.943495182100
      40   14  1  -0.84760      5.941959015110      0.481412656820     17.011977429600
      41   14  2   0.42380      6.326330285480      0.825381787422     17.868682725300
      42   14  2   0.42380      5.789464609410     -0.504040557763     17.086993548500
      43   15  1  -0.84760     -8.349565517280    -15.670322277500     -5.835308525250
      44   15  2   0.42380     -8.171260872510    -16.263098429300     -5.049927160880
      45   15  2   0.42380     -8.064462442730    -14.736422541400     -5.619559782780
      46   16  1  -0.84760    -17.862317391300      7.019583123090     -1.602067069090
      47   16  2   0.42380    -18.333418630100      6.803714487310     -0.746810175018
      48   16  2   0.42380    -17.654027132100      6.172425890310     -2.090881748550
      49   17  1  -0.84760      0.070916132389      3.585869355830     18.572570723900
      50   17  2   0.42380     -0.710419432378      2.983773480160     18.736873163700
      51   17  2   0.42380      0.557105178847      3.743102572660     19.432162444700
      52   18  1  -0.84760     -8.678696785710      8.547743793900      3.990579302770
      53   18  2   0.42380     -9.396602065090      8.943765177540      3.418059369890
      54   18  2   0.42380     -8.484280877680      9.162996418280      4.754560102860
      55   19  1  -0.84760     10.789914924100     -3.091031242270     15.441361749300
      56   19  2   0.42380     11.092205721900     -2.986493415480     16.388827905000
      57   19  2   0.42380     11.556273127300     -2.909746397780     14.825057514700
      58   20  1  -0.84760     -4.426297318600     -2.247707656630     -4.446376048810
      59   20  2   0.42380     -4.794115946290     -1.318326198130     -4.415399255690
      60   20  2   0.42380     -3.894181085920     -2.423359457660     -3.618125627910
      61   21  1  -0.84760     -8.488443746870     18.372703482000     12.211681730700
      62   21  2   0.42380     -8.280485076340     17.420657434100     11.987268018900
      63   21  2   0.42380     -7.969509937280     18.978351923900     11.608442419900
      64   22  1  -0.84760     11.808913953900     -5.469276835790     20.661188575300
      65   22  2   0.42380     11.055439833200     -4.899973308380     20.332296126200
      66   22  2   0.42380     12.054676998700     -6.135982434910     19.957552184900
      67   23  1  -0.84760     18.793600736500     10.647809280000    -16.703923625000
      68   23  2   0.42380     18.648517108700     11.544272422000    -16.285229732000
      69   23  2   0.42380     18.082365575200     10.016495039200    -16.394752354100
      70   24  1  -0.84760    -12.537934956800    -14.201104887300    -19.692448783400
      71   24  2   0.42380    -13.469692083700    -13.974399885800    -19.976056785500
      72   24  2   0.42380    -12.511441280500    -14.320921100700    -18.700006261100
      73   25  1  -0.84760     15.026098657100     -9.916681571460      8.981140632420
      74   25  2   0.42380     15.858271380200     -9.976431309890      8.429852570000
      75   25  2   0.42380     14.509140209400     -9.102397099450      8.717142977220
      76   26  1  -0.84760     -8.147457511900     -7.717417621690    -12.343326469400
      77   26  2   0.42380     -7.211227873010     -7.931250879440    -12.064490673300
      78   26  2   0.42380     -8.714351680740     -7.581267008790    -11.530864770600
      79   27  1  -0.84760      9.404043612400      8.382211452890      3.381102180300
      80   27  2   0.42380      9.132895293260      9.328383094030      3.204359954100
      81   27  2   0.42380      9.034434635830      8.088698007170      4.262713807730
      82   28  1  -0.84760      9.956314114440     -0.395796589806      0.294401746881
      83   28  2   0.42380      9.350596668040     -0.793154141890      0.983758948144
      84   28  2   0.42380     10.544575786800      0.289927533661      0.723039859259
      85   29  1  -0.84760    -10.618072193400      3.885250511720     -4.806007184510
      86   29  2   0.42380    -10.112279399800      3.077148247100     -5.107908459630
      87   29  2   0.42380    -11.565555221800      3.821784142500     -5.119452444050
      88   30  1  -0.84760     -1.012475164640     13.752247621800      0.756994469865
      89   30  2   0.42380     -0.983376303253     14.124784071700      1.684555707590
      90   30  2   0.42380     -0.173725638125     13.238039602700      0.577859478996
      91   31  1  -0.84760     -1.812277694940    -15.916195298000    -15.339032341100
      92   31  2   0.42380     -2.743472434950    -15.878893740900    -15.701640876600
      93   31  2   0.42380     -1.584805142350    -15.040132433000    -14.913861676300
      94   32  1  -0.84760     16.300628262000      2.839065828410      8.804548772420
      95   32  2   0.42380     15.419742716100      2.451938979140      8.532200727160
      96   32  2   0.42380     16.175502373300      3.793038742290      9.077090863810
      97   33  1  -0.84760      4.059008659100     19.328331056500      9.501263880310
      98   33  2   0.42380      4.596194372700     18.706200130700      8.931716147170
      99   33  2   0.42380      3.321089795470     18.820252758900      9.945484764870
     100   34  1  -0.84760    -17.946945466000     -9.278826374310    -10.191081561700
     101   34  2   0.42380    -17.127143437800     -8.843779001940    -10.563450220900
     102   34  2   0.42380    -18.759524752800     -8.865481509990    -10.602008472300
     103   35  1  -0.84760     -6.567295545090    -10.213695498700    -11.632822580700
     104   35  2   0.42380     -5.687297806340    -10.597872430000    -11.353516180500
     105   35  2   0.42380     -7.301277042650    -10.647319793300    -11.110097861300
     106   36  1  -0.84760    -14.645656185500     11.900058508600     11.389528787800
     107   36  2   0.42380    -15.133718330600     11.033374522800     11.492748027300
     108   36  2   0.42380    -13.689410520700     11.777800740400     11.655324323100
     109   37  1  -0.84760      9.108956679170    -15.631885453700    -12.595423787300
     110   37  2   0.42380      8.871229727870    -14.683436591100    -12.385827385600
     111   37  2   0.42380      9.277375895010    -16.129179831100    -11.744346076400
     112   38  1  -0.84760     -0.684270594910      8.727938721590    -19.441854184100
     113   38  2   0.42380     -1.396827267810      8.961615137940    -20.103411680000
     114   38  2   0.42380     -0.974240123776      9.008095860470    -18.526742360400
     115   39  1  -0.84760     10.333252928600      4.361676324020     -2.336748002420
     116   39  2   0.42380      9.592497041410      3.700133063600     -2.219952325550
     117   39  2   0.42380     10.713467839400      4.597663176870     -1.442462350670
     118   40  1  -0.84760    -20.328373660100    -19.348629157500    -14.857022937500
     119   40  2   0.42380    -21.058082565500    -18.739744407600    -14.545921226300
     120   40  2   0.42380    -20.666739251900    -20.289340194600    -14.880928394800
     121   41  1  -0.84760      2.145610365230     14.552164633600    -16.823580828600
     122   41  2   0.42380      2.496607739050     13.679749971300    -17.163718301700
     123   41  2   0.42380      1.887731198180     14.455660840300    -15.862235233600
     124   42  1  -0.84760      7.367831180200     18.128222873000     18.438003412600
     125   42  2   0.42380      7.165312598200     18.967862118700     18.941979762400
     126   42  2   0.42380      6.723505915950     18.031155474400     17.679437084600
     127   43  1  -0.84760    -12.133624904100    -14.446367660500     14.848700270100
     128   43  2   0.42380    -11.686347068800    -15.167626280000     14.319806574000
     129   43  2   0.42380    -11.481919204000    -14.057704761600     15.500022641600
     130   44  1  -0.84760     17.822532803400    -17.636920451700    -14.316199810900
     131   44  2   0.42380     17.180560591700    -18.014537807300    -13.648909160500
     132   44  2   0.42380     18.575451024700    -17.186440952900    -13.836426559200
     133   45  1  -0.84760    -12.308464498300      1.538986867120    -10.361725765900
     134   45  2   0.42380    -12.653258245800      1.435395833030    -11.294670656800
     135   45  2   0.42380    -11.311044763900      1.608207002620    -10.380763788400
     136   46  1  -0.84760     -7.663468061530      0.711993485609    -12.435358593200
     137   46  2   0.42380     -7.396717892680      1.675726966090    -12.427476586300
     138   46  2   0.42380     -7.244498688730      0.243808530420    -11.657369189400
     139   47  1  -0.84760      3.458950238970      6.893310636510     13.223384874900
     140   47  2   0.42380      4.060395041190      6.609823529530     13.970311384100
     141   47  2   0.42380      2.697157476700      7.425626894350     13.592588327000
     142   48  1  -0.84760     -2.428675147380     10.204852390500      9.078442471330
     143   48  2   0.42380     -3.198901959030      9.649617842420      8.764650732760
     144   48  2   0.42380     -2.353970338080     11.023410955600      8.508897857680
     145   49  1  -0.84760      6.716063999720    -15.087063140900     11.870575586500
     146   49  2   0.42380      5.758662811150    -14.833820352900     12.009323755700
     147   49  2   0.42380      7.301197577780    -14.494316875600     12.423992753500
     148   50  1  -0.84760     12.636487184700    -13.012429470600    -16.615064081700
     149   50  2   0.42380     13.596981571600    -12.945517176000    -16.885199747000
     150   50  2   0.42380     12.479689774500    -12.454094580400    -15.800400517700
     151   51  1  -0.84760     -3.921663395770      3.349567405590    -20.065311464700
     152   51  2   0.42380     -3.203135908120      3.343271389190    -19.369841400900
     153   51  2   0.42380     -4.801218003530      3.550537119420    -19.634040243700
     154   52  1  -0.84760    -11.403744012300      6.519067776140     -4.013158149250
     155   52  2   0.42380    -11.318038706100      5.552566535090     -4.255087790960
     156   52  2   0.42380    -10.706848649100      7.047186369020     -4.498366974920
     157   53  1  -0.84760     11.937674976400     16.744155626000     15.581935603900
     158   53  2   0.42380     12.085428558000     16.712573875900     14.593415764900
     159   53  2   0.42380     12.439165603600     15.996895595100     16.017951196600
     160   54  1  -0.84760      9.024081696880     -6.896723409470     -3.040389472750
     161   54  2   0.42380      9.555442991600     -6.074023323270     -3.242428435920
     162   54  2   0.42380      8.048985978430     -6.675335776270     -3.053650533370
     163   55  1  -0.84760    -10.488618493100     -7.530248464940      3.658387169640
     164   55  2   0.42380     -9.714158474370     -6.958111347640      3.388441252160
     165   55  2   0.42380    -10.736293670300     -8.134779406070      2.901287871120
     166   56  1  -0.84760     -6.664613302110     -5.114658861810      0.531557868778
     167   56  2   0.42380     -7.568703646210     -5.535679887640      0.458332562210
     168   56  2   0.42380     -5.974064208080     -5.827325511180      0.655041453161
     169   57  1  -0.84760     20.378922980900     -5.532477053420     -6.564986134480
     170   57  2   0.42380     20.353036364600     -5.132923204600     -5.648641982430
     171   57  2   0.42380     21.293333466006     -5.895155445240     -6.744757791780
     172   58  1  -0.84760    -10.037694635000     -5.361027342210     19.945743629900
     173   58  2   0.42380     -9.057448686930     -5.175694465990     20.014805966400
     174   58  2   0.42380    -10.178537557600     -6.260007335200     19.531016920700
     175   59  1  -0.84760      2.778798687310      9.601488706870     10.433585471100
     176   59  2   0.42380      2.538864866210      8.832124243710      9.841546549820
     177   59  2   0.42380      2.179164175610      9.605907578440     11.233847257000
     178   60  1  -0.84760     -8.478190462030      5.421350239930     19.444296096900
     179   60  2   0.42380     -9.363235891860      5.470410354770     18.981383910600
     180   60  2   0.42380     -8.293914607840      4.475572425430     19.711778311600
     181   61  1  -0.84760    -14.565471956000     -3.353295152910      0.696197589735
     182   61  2   0.42380    -14.296140024400     -2.480707417270      1.103691091820
     183   61  2   0.42380    -15.526304418300     -3.310819295740      0.422342188305
     184   62  1  -0.84760    -11.301261320600    -19.867156351300     -1.224888146700
     185   62  2   0.42380    -10.945161444200    -19.908604212400     -2.158416374900
     186   62  2   0.42380    -11.967362678200    -20.600602015900     -1.089365313310
     187   63  1  -0.84760    -13.256797510800     20.915012292800      5.008446897190
     188   63  2   0.42380    -13.115747338200     21.867335749806      4.737919852480
     189   63  2   0.42380    -12.436962108900     20.383254988700      4.796069677430
     190   64  1  -0.84760     -9.369612107720     16.470376486800    -17.924011954000
     191   64  2   0.42380    -10.083075259900     16.298616453700    -17.244696989100
     192   64  2   0.42380     -9.669987251880     17.192053275100    -18.547676436000
     193   65  1  -0.84760    -12.312923553600      9.950342659060    -15.100565126000
     194   65  2   0.42380    -12.215342198100     10.321918034600    -16.023825446500
     195   65  2   0.42380    -13.157250670900      9.417594588020    -15.043196042500
     196   66  1  -0.84760     -9.872663719750     -3.411591184130    -12.011774440600
     197   66  2   0.42380     -8.920246008430     -3.335462337670    -12.306909836500
     198   66  2   0.42380    -10.240120478300     -2.498932937440    -11.832803897300
     199   67  1  -0.84760      1.652093121300    -18.875027425900     16.451631960400
     200   67  2   0.42380      1.341109359420    -18.613056929900     15.538034369000
     201   67  2   0.42380      0.904967367327    -18.754607500100     17.105315484100
     202   68  1  -0.84760    -20.487437659600    -17.279022766200     10.574568673900
     203   68  2   0.42380    -19.692384015700    -17.764350013300     10.938364174800
     204   68  2   0.42380    -20.186825034900    -16.607324982500      9.897476259760
     205   69  1  -0.84760    -14.336278192700     -0.655397112468     11.049990713400
     206   69  2   0.42380    -13.492532071600     -1.026166142530     11.438092258700
     207   69  2   0.42380    -14.173283403200      0.277085963778     10.727643057800
     208   70  1  -0.84760     -1.143561348290    -18.839712867800      4.612461124170
     209   70  2   0.42380     -0.169643371246    -19.066107849300      4.627596723240
     210   70  2   0.42380     -1.579694564730    -19.295503268700      3.836546871180
     211   71  1  -0.84760     13.678123794900    -13.937245627200      2.234704722320
     212   71  2   0.42380     13.770124282000    -14.442167005400      1.376456324620
     213   71  2   0.42380     13.745725762600    -12.956191877200      2.053146154330
     214   72  1  -0.84760     11.566759944700      1.704204423030     18.336268977400
     215   72  2   0.42380     10.870615451800      2.006061653470     17.684912655900
     216   72  2   0.42380     12.471523566800      1.783643615180     17.917828775300
     217   73  1  -0.84760     -3.002214477160     -6.729023702430      8.364215580170
     218   73  2   0.42380     -3.677187596700     -7.459740781820      8.466508482090
     219   73  2   0.42380     -3.469271800080     -5.845202888110      8.337415854770
     220   74  1  -0.84760     18.093823165200      5.723419337950    -17.423895739800
     221   74  2   0.42380     17.366358222100      5.043899515560    -17.328777037500
     222   74  2   0.42380     18.647222112900      5.738059960740    -16.591108097600
     223   75  1  -0.84760     -4.043440521170     -8.310259941960    -14.380334259700
     224   75  2   0.42380     -4.502362583890     -7.564641938580    -13.897173485900
     225   75  2   0.42380     -4.410768130140     -9.186137913740    -14.067431389400
     226   76  1  -0.84760     13.806808673000     -6.167184718730     -0.051590981551
     227   76  2   0.42380     14.547088500100     -5.564796827810      0.246929715102
     228   76  2   0.42380     13.493585597700     -6.718710053860      0.721526803694
     229   77  1  -0.84760     -2.252734162120     12.644115944600    -14.182456894300
     230   77  2   0.42380     -1.714188977860     11.907215388700    -13.773865833300
     231   77  2   0.42380     -2.361879424410     12.473670763400    -15.161760602000
     232   78  1  -0.84760     12.142182814300      3.324641114740    -19.528903903000
     233   78  2   0.42380     11.634548455700      2.778656625170    -18.862414371900
     234   78  2   0.42380     12.216932109800      2.817500993510    -20.387519905800
     235   79  1  -0.84760     -2.201313707700    -15.089842679300     -8.133749151940
     236   79  2   0.42380     -2.874339896990    -15.435127254800     -8.787824308470
     237   79  2   0.42380     -2.649449399750    -14.909729375800     -7.258115895700
     238   80  1  -0.84760     20.197479558900    -11.820460032900     19.627851588800
     239   80  2   0.42380     20.801186440600    -11.612614806800     18.858216374600
     240   80  2   0.42380     20.744578705600    -12.122635837000     20.408474613800
     241   81  1  -0.84760      5.090929499040     -5.478933463150     -5.305395813750
     242   81  2   0.42380      4.749790888790     -6.002826602020     -4.524908512350
     243   81  2   0.42380      5.847531989440     -5.973173289860     -5.733507557600
     244   82  1  -0.84760     18.603444908600      4.426350344510     15.076020974700
     245   82  2   0.42380     18.370472859700      5.391580715930     15.194572037700
     246   82  2   0.42380     17.764476909300      3.889371393710     14.987780946300
     247   83  1  -0.84760     17.431943065700    -20.359873272200     20.458468666800
     248   83  2   0.42380     18.001842872600    -20.291818887500     21.277359875006
     249   83  2   0.42380     17.185881866100    -21.316443940406     20.302179054800
     250   84  1  -0.84760     10.405965115400     -7.365165539550     -9.704556127350
     251   84  2   0.42380     11.133704540500     -7.748985920500     -9.136157284690
     252   84  2   0.42380     10.729959622500     -7.277427964910    -10.646537909200
     253   85  1  -0.84760    -11.769501479600      6.526293785590      4.309600291160
     254   85  2   0.42380    -11.264567827300      6.307370936780      3.474666285950
     255   85  2   0.42380    -12.524151686700      7.144681699570      4.090284416670
     256   86  1  -0.84760      6.765813328700     15.706606072500     -4.685554836670
     257   86  2   0.42380      7.001756550510     15.762522118300     -5.655711623950
     258   86  2   0.42380      6.266923398320     14.857442802000     -4.512261509230
     259   87  1  -0.84760     20.202497305200    -13.437620343600      2.449181072780
     260   87  2   0.42380     19.343953792300    -13.548088112300      1.948481653290
     261   87  2   0.42380     20.704572962500    -14.302432815500      2.444773943840
     262   88  1  -0.84760      9.866566741200     11.081743531100     -3.971280394920
     263   88  2   0.42380      9.114022203880     10.535127016100     -4.338550193440
     264   88  2   0.42380     10.623111219300     10.479204253800     -3.717140921500
     265   89  1  -0.84760      8.131518905130      8.536178537930     11.206425894800
     266   89  2   0.42380      7.523487507440      7.766511178990     11.401130738100
     267   89  2   0.42380      8.195701914740      9.122769824380     12.013761762900
     268   90  1  -0.84760     -5.586143661540     18.076424295200    -12.802372294400
     269   90  2   0.42380     -5.162702164320     18.152287248700    -13.705113736200
     270   90  2   0.42380     -4.947794763030     18.404702449700    -12.106136603700
     271   91  1  -0.84760     -1.458413252330      6.062895867240     -8.689459519100
     272   91  2   0.42380     -0.847708136640      6.702065497470     -9.156900900940
     273   91  2   0.42380     -2.039908977980      5.605156228980     -9.362019661110
     274   92  1  -0.84760     19.254268856700     19.971310727200    -20.642419090000
     275   92  2   0.42380     19.339771973700     19.914748129400    -19.647688026100
     276   92  2   0.42380     19.722364291100     20.791592265200    -20.971090449900
     277   93  1  -0.84760     12.548613242000     15.511169356800     18.067587976100
     278   93  2   0.42380     11.570962129500     15.319624266100     17.980934756900
     279   93  2   0.42380     13.058129869600     14.650708546500     18.067597135700
     280   94  1  -0.84760    -17.370756104200     18.407939538100     -5.757791290350
     281   94  2   0.42380    -18.040900970100     18.952999850900     -5.253990621190
     282   94  2   0.42380    -16.942899125400     17.749827648100     -5.138253441710
     283   95  1  -0.84760     -9.571342224360     -8.557417936870    -17.730382073000
     284   95  2   0.42380     -8.846616248810     -8.482254332650    -17.045456753700
     285   95  2   0.42380    -10.387667300200     -8.079731460260    -17.405683750600
     286   96  1  -0.84760     -0.190198527050     18.650999246900     -0.938352492152
     287   96  2   0.42380      0.583018901441     18.080690052000     -0.661076040826
     288   96  2   0.42380      0.056911726521     19.173821239000     -1.754191745430
     289   97  1  -0.84760     -7.352559349840     -8.643042245040      6.447750306450
     290   97  2   0.42380     -7.693238366760     -9.520188726990      6.786205409270
     291   97  2   0.42380     -6.716537168850     -8.801484952440      5.692520742840
     292   98  1  -0.84760    -19.546053329000      0.917287431831     -5.113001377430
     293   98  2   0.42380    -20.261560079600      1.291319555580     -5.703043799790
     294   98  2   0.42380    -19.946719564800      0.634478260870     -4.241516701540
     295   99  1  -0.84760    -18.728826456500     -6.593765941200      9.163481245890
     296   99  2   0.42380    -18.645851680600     -5.612871195630      8.987524760760
     297   99  2   0.42380    -18.406507280300     -6.794903844270     10.088496863400
     298  100  1  -0.84760     -3.710023323700     -9.992630922410     -3.364502246000
     299  100  2   0.42380     -4.364196487240     -9.964167266280     -4.120311277690
     300  100  2   0.42380     -3.342624227830    -10.918508507800     -3.276362577470
     301  101  1  -0.84760    -21.041126019800    -18.132048116900     -2.481041620390
     302  101  2   0.42380    -21.107140041406    -19.034566828500     -2.906602572810
     303  101  2   0.42380    -20.584006617000    -18.213772717600     -1.595398949090
     304  102  1  -0.84760     -0.244866600268     16.027433231800      7.038588544550
     305  102  2   0.42380      0.330109320227     16.796802572700      6.760247911190
     306  102  2   0.42380     -1.149423623590     16.119613746300      6.622320188440
     307  103  1  -0.84760    -13.703882687900     14.179895540800    -11.765184838700
     308  103  2   0.42380    -13.748071891500     15.146855257100    -11.514114686500
     309  103  2   0.42380    -13.476128117600     13.635910419100    -10.957590854600
     310  104  1  -0.84760     17.154557327000    -20.341282801300     -7.037036815420
     311  104  2   0.42380     16.620890505500    -19.813123745000     -7.697527341440
     312  104  2   0.42380     18.129410629300    -20.225350236100     -7.227354127250
     313  105  1  -0.84760    -13.180562917600    -14.577716314000     19.107156170700
     314  105  2   0.42380    -13.673048542900    -14.502188754800     19.974193365100
     315  105  2   0.42380    -13.239898208800    -13.710114940500     18.613448585300
     316  106  1  -0.84760     13.122604289400      9.898613767850    -14.806338416200
     317  106  2   0.42380     12.448952003700      9.159580567450    -14.801592181500
     318  106  2   0.42380     12.849860260800     10.593971060400    -15.471236100500
     319  107  1  -0.84760     16.454427808700    -12.430187509500     13.951791864000
     320  107  2   0.42380     17.350820754400    -12.488303263000     14.391225870700
     321  107  2   0.42380     15.766312055400    -12.853738472600     14.540944893100
     322  108  1  -0.84760     14.444158422800     17.153372034000      7.476353632560
     323  108  2   0.42380     14.675180970800     17.204768284600      6.504763694500
     324  108  2   0.42380     13.643435174600     16.566817099000      7.597990748680
     325  109  1  -0.84760     -8.899947191890     21.034843773700    -20.723737321200
     326  109  2   0.42380     -8.972051304810     20.171797570900    -21.223689567706
     327  109  2   0.42380     -8.025671987180     21.471206660506    -20.936411479100
     328  110  1  -0.84760     -0.524642037027      9.535350408610     -5.230218296320
     329  110  2   0.42380     -0.454687602854      9.046622260960     -4.360591264300
     330  110  2   0.42380     -1.442115056140      9.412689851530     -5.608632945800
     331  111  1  -0.84760     16.285472491600     19.178024568300    -12.504913766700
     332  111  2   0.42380     16.235868984100     19.361692551100    -11.523177771600
     333  111  2   0.42380     17.089709329600     18.616191051400    -12.698682205300
     334  112  1  -0.84760     13.173577967600    -19.918698847100     20.176665838900
     335  112  2   0.42380     12.182979531200    -19.910589230800     20.313227077600
     336  112  2   0.42380     13.435861117800    -20.750745572100     19.687885932800
     337  113  1  -0.84760    -13.850462345500     10.327173258900     -0.383650645457
     338  113  2   0.42380    -13.681611790900     10.154308624300     -1.354015168880
     339  113  2   0.42380    -14.246459220000     11.238540636100     -0.271418835224
     340  114  1  -0.84760     16.847762793800     15.250005513300      4.463601782030