LAMMPS Atom File

         4500 atoms
         3000 bonds
         1500 angles
           0 dihedrals
           0 impropers

           2 atom types
           1 bond types
           1 angle types

         0.0  37.8886595936 xlo xhi
         0.0  37.8886595936 ylo yhi
         0.0  37.8886595936 zlo zhi

Masses

         1   15.9994
         2   1.00794

Atoms

       1    1  1  -0.84760    -15.827858648700      5.023220860200    -17.218103834500
       2    1  2   0.42380    -16.495005476900      4.304756135490    -17.021320834900
       3    1  2   0.42380    -16.110295416900      5.871892811860    -16.770906573300
       4    2  1  -0.84760    -14.773937302100     -9.467875722020    -11.383180057400
       5    2  2   0.42380    -15.674947413100     -9.314048436160    -11.788788176300
       6    2  2   0.42380    -14.473309412600     -8.637372744220    -10.914258234500
       7    3  1  -0.84760     -9.082543926480     15.509025094200     -7.344386910950
       8    3  2   0.42380     -9.606010423070     16.104052470400     -7.954243655250
       9    3  2   0.42380     -9.563415357570     15.419798340300     -6.472147693110
      10    4  1  -0.84760    -18.413321714200    -12.152156879100      3.500425472120
      11    4  2   0.42380    -17.772976679400    -12.669179932700      2.932406635710
      12    4  2   0.42380    -19.264847265020    -12.008217187400      2.996257244860
      13    5  1  -0.84760     -0.124082217512     12.321158932400    -13.088122068600
      14    5  2   0.42380      0.275623821803     11.698540427700    -12.415380454200
      15    5  2   0.42380     -0.712442504616     12.982103188400    -12.622305728200
      16    6  1  -0.84760     -5.248035288120    -12.769310520800      5.426211333850
      17    6  2   0.42380     -5.516856807250    -12.700013985700      6.386905343970
      18    6  2   0.42380     -4.618740605470    -13.537858106100      5.310786849970
      19    7  1  -0.84760    -12.969638795300     -3.887678409730     18.650353829900
      20    7  2   0.42380    -13.486480007700     -3.063802658280     18.417751363600
      21    7  2   0.42380    -12.440723031300     -4.184873523250     17.855417870800
      22    8  1  -0.84760     17.918233375000     17.679066996300    -13.548667981400
      23    8  2   0.42380     16.921117295300     17.738097592900    -13.596364022700
      24    8  2   0.42380     18.260365372400     17.172362917300    -14.339993876800
      25    9  1  -0.84760    -11.611941051400     -0.529258217683     12.014725325500
      26    9  2   0.42380    -11.474547303300      0.040083817525     11.204186859500
      27    9  2   0.42380    -10.838575803700     -1.154809855560     12.117639571300
      28   10  1  -0.84760    -10.370020718800    -17.345816509500      1.269707507860
      29   10  2   0.42380    -10.434157411400    -17.145202647200      0.292138808017
      30   10  2   0.42380     -9.435225229140    -17.622372530100      1.492584514090
      31   11  1  -0.84760     -0.360955725436      9.158640161200     10.691766779000
      32   11  2   0.42380      0.291769747595      9.831865524270     11.039210396600
      33   11  2   0.42380     -0.940998066567      9.584343269880      9.997268581930
      34   12  1  -0.84760    -17.165622852300     11.893500800100     14.390897797400
      35   12  2   0.42380    -16.929282533900     12.015493597500     13.426915945200
      36   12  2   0.42380    -18.058219963900     11.448203717700     14.461473322300
      37   13  1  -0.84760    -16.642212282600      8.406026035480     12.908107599000
      38   13  2   0.42380    -16.004168198300      9.035963368910     12.465299850100
      39   13  2   0.42380    -17.571403379900      8.768969722500     12.838280779400
      40   14  1  -0.84760      5.101562992390      0.911904321814     12.028467477900
      41   14  2   0.42380      4.323460821410      0.426403568108     11.629912551200
      42   14  2   0.42380      4.980735833730      1.896409803410     11.901385793800
      43   15  1  -0.84760     -8.781585929890    -14.901604677100     -3.781366498170
      44   15  2   0.42380     -9.706529549570    -14.584180453700     -3.572270437040
      45   15  2   0.42380     -8.433712806700    -14.411508436000     -4.580609868230
      46   16  1  -0.84760     16.950930599000      9.290965946750     -0.811620453226
      47   16  2   0.42380     17.323630347100     10.024497233600     -1.379974875190
      48   16  2   0.42380     15.954127651400      9.281559016780     -0.890963967792
      49   17  1  -0.84760      0.983423107639      2.112140556170     13.686857684000
      50   17  2   0.42380      1.210083940130      1.439942448590     12.982035315500
      51   17  2   0.42380      0.897224234890      1.652253518180     14.570641405700
      52   18  1  -0.84760     -8.463591489640      7.664784251760      4.901041210900
      53   18  2   0.42380     -8.448962134960      8.465137391410      5.500391554060
      54   18  2   0.42380     -9.383262206240      7.272207346030      4.891599488760
      55   19  1  -0.84760      9.070637967900     -1.653275623050     14.571600372800
      56   19  2   0.42380      9.179081923880     -2.437642873260     15.182344120400
      57   19  2   0.42380      9.042080733020     -1.970398542960     13.623645976200
      58   20  1  -0.84760     -3.127538325290     -0.760052794859     -4.328974687730
      59   20  2   0.42380     -2.414852261920     -0.241561935609     -3.856485741870
      60   20  2   0.42380     -2.704089970500     -1.407899947970     -4.962208891660
      61   21  1  -0.84760     -5.733061933420     15.855775669500     10.344193905200
      62   21  2   0.42380     -5.223595611380     16.644745448000     10.687662616000
      63   21  2   0.42380     -5.969062119410     15.253657424600     11.106924218800
      64   22  1  -0.84760     10.808869573200     -7.828301059340    -17.075791608100
      65   22  2   0.42380      9.855928128370     -7.919588933550    -17.364874860300
      66   22  2   0.42380     10.840877129000     -7.494019377560    -16.133862060000
      67   23  1  -0.84760    -14.126797908900      6.095102828890    -11.179658083000
      68   23  2   0.42380    -13.546109554500      6.080756145340    -11.993657596400
      69   23  2   0.42380    -14.167469082800      7.025588968950    -10.815595727400
      70   24  1  -0.84760    -12.019434225500    -12.931250480600    -17.669685383600
      71   24  2   0.42380    -12.220409417500    -12.230866558100    -16.984797558300
      72   24  2   0.42380    -11.106712027200    -12.775765812200    -18.047524908600
      73   25  1  -0.84760     13.900170097200     -9.134496656990      7.867371554480
      74   25  2   0.42380     13.004399177700     -9.576175511700      7.817229266210
      75   25  2   0.42380     13.780636417000     -8.142797426690      7.914745977060
      76   26  1  -0.84760     -4.413772110780     -6.033395559830    -10.930996516000
      77   26  2   0.42380     -4.425798651540     -5.111411721050    -11.318038068500
      78   26  2   0.42380     -5.348089331880     -6.386416143060    -10.881723823900
      79   27  1  -0.84760      9.478913509830      9.008291753430      3.216936848150
      80   27  2   0.42380      8.596549094260      8.554916622370      3.342968703920
      81   27  2   0.42380      9.964884689600      9.040458519820      4.090319531500
      82   28  1  -0.84760      6.576809167970      0.255066451276      0.741811020827
      83   28  2   0.42380      6.307727541960      0.313563736966     -0.219528225284
      84   28  2   0.42380      6.573426335540      1.170108366520      1.145155600300
      85   29  1  -0.84760    -10.629313947300      7.825440828070     -8.968488573940
      86   29  2   0.42380    -10.508899217500      8.079926241590     -9.928039232920
      87   29  2   0.42380     -9.819216291640      7.333182251000     -8.650018353020
      88   30  1  -0.84760      0.947356716875     14.922491723000     -0.587798378017
      89   30  2   0.42380      1.723248835000     14.319944756200     -0.774690255324
      90   30  2   0.42380      0.664704763597     15.374171126600     -1.434021510300
      91   31  1  -0.84760     -3.493671513930    -16.612223529300    -13.895463418400
      92   31  2   0.42380     -3.630237851190    -17.333827303100    -14.574166320400
      93   31  2   0.42380     -4.274129512660    -15.987229286900    -13.911819125900
      94   32  1  -0.84760     13.475635154400      3.183052059030      6.583617441830
      95   32  2   0.42380     12.856277587800      3.899721385220      6.263022242980
      96   32  2   0.42380     13.679073817300      2.557024409070      5.830821259640
      97   33  1  -0.84760      1.241113837610    -17.943542571000      9.153996142760
      98   33  2   0.42380      0.265651996080    -18.136068145400      9.260804845300
      99   33  2   0.42380      1.364586568360    -17.206508125300      8.489515359990
     100   34  1  -0.84760    -13.923941079700     -9.487052278290     -8.494490224330
     101   34  2   0.42380    -13.607160469300    -10.070795630000     -9.242082188050
     102   34  2   0.42380    -14.923289949800     -9.451386595160     -8.499948687130
     103   35  1  -0.84760     -6.688806408260     -8.070527819430     -9.047816572550
     104   35  2   0.42380     -6.413184753200     -7.134017848400     -8.831063769970
     105   35  2   0.42380     -6.722690554380     -8.611033509250     -8.207158815850
     106   36  1  -0.84760    -12.550152412500     11.218788213900     10.833467962500
     107   36  2   0.42380    -12.344425175700     11.437643358600      9.879644745320
     108   36  2   0.42380    -12.159581195800     10.327181733100     11.062579306700
     109   37  1  -0.84760      6.185467997090    -12.442972956600    -13.085118260600
     110   37  2   0.42380      6.761552976440    -11.914672410100    -12.461399871300
     111   37  2   0.42380      6.047521951070    -11.926039542800    -13.929955957500
     112   38  1  -0.84760      1.404659570080      9.977514275560    -16.982986935000
     113   38  2   0.42380      1.532359530680     10.969230205000    -16.969122035500
     114   38  2   0.42380      0.614398004066      9.735306804430    -16.420117324700
     115   39  1  -0.84760      8.172218515450      3.692414238850     -2.101071691510
     116   39  2   0.42380      7.545591403900      4.392144939310     -2.444168485300
     117   39  2   0.42380      8.774883580730      4.093916174920     -1.411440620270
     118   40  1  -0.84760    -18.281075309500    -17.400002217500    -13.360751811000
     119   40  2   0.42380    -18.102671161200    -17.716794203300    -14.292317588400
     120   40  2   0.42380    -18.675809178400    -18.146266001700    -12.824770900000
     121   41  1  -0.84760      5.291195621050     16.848982532700     16.699625703100
     122   41  2   0.42380      4.880115583870     17.707677437100     16.393592593500
     123   41  2   0.42380      6.287675601440     16.929287884700     16.675569537500
     124   42  1  -0.84760      6.377036885930     13.770179366400     16.681955158900
     125   42  2   0.42380      6.416757635130     13.017428951900     17.339061752600
     126   42  2   0.42380      6.397419932920     14.641712950400     17.171867134000
     127   43  1  -0.84760    -11.766154310700    -11.993180201700     16.331417264900
     128   43  2   0.42380    -12.120723691200    -12.443846325500     15.512161139300
     129   43  2   0.42380    -11.983296838000    -11.017696229900     16.295638171500
     130   44  1  -0.84760    -11.476179754100     -0.146366716161     -7.857615385810
     131   44  2   0.42380    -11.868500223200      0.559819470303     -7.268221019060
     132   44  2   0.42380    -11.930536434000     -1.019244229030     -7.679725377660
     133   45  1  -0.84760     -6.206873333400     -0.367601459820    -11.906659706900
     134   45  2   0.42380     -5.265853746280     -0.548778887621    -12.192416380200
     135   45  2   0.42380     -6.735494703690     -1.215666633780    -11.943332688500
     136   46  1  -0.84760      3.638505573050      7.297159834300     11.598720054900
     137   46  2   0.42380      2.937284068070      6.885297812070     12.180663416000
     138   46  2   0.42380      3.322506140230      7.303930752460     10.649984837200
     139   47  1  -0.84760     11.220381951800     -9.864850122490    -14.860141220500
     140   47  2   0.42380     12.137881837300     -9.709106775240    -15.226116588400
     141   47  2   0.42380     10.744636180400     -8.989924051590    -14.769751334800
     142   48  1  -0.84760     -4.681587023440      3.269509815150    -15.994927957700
     143   48  2   0.42380     -5.006202542110      2.333531692930    -16.131198716600
     144   48  2   0.42380     -5.412659319230      3.912431327340    -16.223368819800
     145   49  1  -0.84760    -11.322221707400      5.624398784440     -6.537593457200
     146   49  2   0.42380    -11.211389477300      6.076220351040     -5.652396592810
     147   49  2   0.42380    -11.828948521600      6.224200382260     -7.156839756340
     148   50  1  -0.84760      9.709078213040     13.623218910400     16.511179786400
     149   50  2   0.42380      8.858692047300     13.259778444700     16.891645812500
     150   50  2   0.42380     10.072687942700     12.982072974400     15.835369270600
     151   51  1  -0.84760      5.738317926320      0.381579173167     -2.121369362160
     152   51  2   0.42380      5.116501294310     -0.077173905651     -2.756105282710
     153   51  2   0.42380      6.561834046190     -0.173044987871     -2.002150067140
     154   52  1  -0.84760    -11.395036972900     -6.091199171960      5.958748064250
     155   52  2   0.42380    -12.274681578000     -5.647167576300      6.129221847650
     156   52  2   0.42380    -11.271301439000     -6.218922829380      4.974686996540
     157   53  1  -0.84760     -4.480535183540     -2.952008086580     -5.892013333050
     158   53  2   0.42380     -4.442839007070     -2.280159202130     -5.152284954020
     159   53  2   0.42380     -4.065643255370     -2.564829279690     -6.715394933190
     160   54  1  -0.84760    -17.679210904500     -5.337349880920     -6.152382082070
     161   54  2   0.42380    -16.922148660000     -5.987778704190     -6.214018953200
     162   54  2   0.42380    -18.253142382300     -5.567399092780     -5.366455864870
     163   55  1  -0.84760     -4.917662442130     -9.954061158870     16.877780605000
     164   55  2   0.42380     -5.172418424570    -10.022839355600     17.842336953400
     165   55  2   0.42380     -5.739060723090    -10.016324197900     16.310834242500
     166   56  1  -0.84760      2.625090868810      8.457872223030      9.363881925730
     167   56  2   0.42380      3.138246418600      9.255236404330      9.681500791810
     168   56  2   0.42380      1.829660726510      8.316969795130      9.953320128200
     169   57  1  -0.84760     -7.591823012650      4.620470833900     17.703856053300
     170   57  2   0.42380     -8.097934338900      4.052858013030     17.054497130200
     171   57  2   0.42380     -7.109177838550      5.343226883740     17.209207361500
     172   58  1  -0.84760    -12.678491099100     -4.310870431840     -3.996568661240
     173   58  2   0.42380    -12.444185581800     -5.188386122060     -4.414978912050
     174   58  2   0.42380    -12.155611361500     -3.581260721970     -4.437325341610
     175   59  1  -0.84760     -3.063368482110     10.754475788800     11.183837192500
     176   59  2   0.42380     -2.696868762130     10.303937433900     10.369777522700
     177   59  2   0.42380     -3.119089250130     10.094781059900     11.933302375700
     178   60  1  -0.84760    -10.317122730400    -17.109220594500     -2.606824698510
     179   60  2   0.42380     -9.867479885620    -16.424717628000     -2.032998068820
     180   60  2   0.42380    -11.308889323900    -17.026948600600     -2.508690387320
     181   61  1  -0.84760    -11.435730696300    -17.774745851600      4.321362878530
     182   61  2   0.42380    -11.378189543800    -18.049017116900      3.361433564040
     183   61  2   0.42380    -10.976792515800    -16.894880772900      4.444704638390
     184   62  1  -0.84760     -7.180681184450     15.190344577400    -15.324656589900
     185   62  2   0.42380     -7.804000990420     15.719034465200    -15.900815788300
     186   62  2   0.42380     -6.254268640840     15.246377522700    -15.696973804200
     187   63  1  -0.84760    -10.688754156700      7.712835528420    -13.202700611100
     188   63  2   0.42380    -11.088369383900      8.208243516040    -12.431416878600
     189   63  2   0.42380     -9.711614502570      7.917546827160    -13.260071165300
     190   64  1  -0.84760    -10.465971823700     -4.105873447290    -11.591218266400
     191   64  2   0.42380    -10.358621007800     -3.503814215550    -12.382420189900
     192   64  2   0.42380    -10.679568058600     -3.558250751900    -10.782215156400
     193   65  1  -0.84760      2.096540773910    -15.190965228300     14.598118280000
     194   65  2   0.42380      2.306665512480    -15.368205089200     15.559592994200
     195   65  2   0.42380      2.179841007450    -14.211639580400     14.413775267000
     196   66  1  -0.84760     18.314198318400    -15.299047745500      9.668326709090
     197   66  2   0.42380     19.276751195820    -15.039528777300      9.589956668580
     198   66  2   0.42380     17.824397995600    -14.606718960700     10.198210184500
     199   67  1  -0.84760    -11.190255626800     -3.906637806960     16.581055174500
     200   67  2   0.42380    -11.155339750800     -2.921341909210     16.748306110200
     201   67  2   0.42380    -10.660872123200     -4.124504195150     15.761123870700
     202   68  1  -0.84760     -1.555513162650    -13.699305182200      5.881102226880
     203   68  2   0.42380     -2.211987195530    -14.450505952400      5.949944415690
     204   68  2   0.42380     -1.963146822090    -12.865291626900      6.252930398590
     205   69  1  -0.84760     14.800745624400    -10.439240962800      3.338992942800
     206   69  2   0.42380     14.743821202200    -11.426210782100      3.489492730540
     207   69  2   0.42380     13.905228016400    -10.025055157400      3.501776026690
     208   70  1  -0.84760      9.938003349500     -0.109881552230     16.964500949600
     209   70  2   0.42380      9.109255379890     -0.393810819033     16.482255188300
     210   70  2   0.42380     10.718810158100     -0.631856018168     16.621159451100
     211   71  1  -0.84760     -0.023244868904     -5.902222190080      6.432654660240
     212   71  2   0.42380      0.578572586937     -6.680898279980      6.255230600850
     213   71  2   0.42380     -0.966312364658     -6.223037618540      6.520410909650
     214   72  1  -0.84760     17.252421100400      6.571797216220     18.694421235000
     215   72  2   0.42380     17.353194862900      6.121729325820     17.807131235700
     216   72  2   0.42380     16.894791521700      7.496030043910     18.560649920400
     217   73  1  -0.84760     -0.418442483260    -10.424416511300    -18.479471031600
     218   73  2   0.42380     -1.004213488170    -10.563911948600    -19.277852740320
     219   73  2   0.42380     -0.487689868730     -9.473683523960    -18.177292961000
     220   74  1  -0.84760     11.922453378400     -8.657176465590      4.061649012830
     221   74  2   0.42380     11.013713887600     -8.455982800500      4.427317779740
     222   74  2   0.42380     12.544597545600     -7.906240177280      4.283079196050
     223   75  1  -0.84760     -1.787441420150      6.248147700440    -10.576841999500
     224   75  2   0.42380     -1.795002349930      6.581262549540     -9.633986056250
     225   75  2   0.42380     -2.002171144980      5.271527376090    -10.587034513000
     226   76  1  -0.84760      6.619654773490      7.343896701200    -12.942424188200
     227   76  2   0.42380      5.724542571470      7.600199202880    -13.307229853500
     228   76  2   0.42380      7.190813319510      8.160241879710    -12.856642693500
     229   77  1  -0.84760      1.224513828990    -15.010187334100     -5.300972465660
     230   77  2   0.42380      1.568900530780    -14.587652087600     -6.139340979560
     231   77  2   0.42380      0.666898173107    -14.348922672700     -4.799181844100
     232   78  1  -0.84760    -18.746008042900    -10.414041043100     17.575139215900
     233   78  2   0.42380    -19.036818247520     -9.951914058510     18.412914886900
     234   78  2   0.42380    -19.547198153320    -10.777070509100     17.099425001500
     235   79  1  -0.84760      7.336909417560     -4.424524176910     -5.529391862240
     236   79  2   0.42380      7.497258693390     -3.909918937190     -4.687091703750
     237   79  2   0.42380      7.289350730950     -5.401076208640     -5.319429244990
     238   80  1  -0.84760     17.341146439500      4.922589892940     15.619666011300
     239   80  2   0.42380     16.586546879700      4.267475204170     15.657139320600
     240   80  2   0.42380     17.031604477300      5.762415395550     15.173709848800
     241   81  1  -0.84760     17.392220716200    -17.544026851300    -17.895255051500
     242   81  2   0.42380     18.341340946900    -17.842337970400    -17.794352802000
     243   81  2   0.42380     17.223225387500    -17.286141899200    -18.846536256200
     244   82  1  -0.84760      9.357966117880     -6.623409631620     -8.727196989570
     245   82  2   0.42380      9.661097011080     -5.918755007420     -8.085657028090
     246   82  2   0.42380      8.822920673750     -6.200443276930     -9.458514865410
     247   83  1  -0.84760    -14.373739585300      5.516146811600      1.288285618140
     248   83  2   0.42380    -14.825980878500      6.406918369070      1.333049946970
     249   83  2   0.42380    -15.063784143800      4.794222982310      1.236666900210
     250   84  1  -0.84760     10.630062882500     11.762249401100     -2.615026816020
     251   84  2   0.42380      9.654221645280     11.611442506000     -2.456940889650
     252   84  2   0.42380     10.749374413600     12.460557951300     -3.320810017320
     253   85  1  -0.84760     16.691619794600    -11.334981725900      0.308056876586
     254   85  2   0.42380     17.163572792300    -11.846014284900     -0.410348365349
     255   85  2   0.42380     17.029302986800    -10.393863816100      0.324401340749
     256   86  1  -0.84760      6.138093264430      9.080977185850     10.069749454300
     257   86  2   0.42380      6.126560668570      8.085074357950     10.159440906600
     258   86  2   0.42380      5.232580212050      9.401060836200      9.791195027380
     259   87  1  -0.84760     -0.388612470874      3.992794893230     -8.220227335530
     260   87  2   0.42380      0.375459752237      4.570135775900     -7.932353851050
     261   87  2   0.42380     -0.242914382966      3.692706454860     -9.162946273670
     262   88  1  -0.84760    -18.851940923400     17.562303392500     18.007060855700
     263   88  2   0.42380    -19.375621723020     17.809203209200     17.191708845500
     264   88  2   0.42380    -18.676038512200     16.577898406000     18.004788366600
     265   89  1  -0.84760     10.811266003100     15.424122713300     17.898215616200
     266   89  2   0.42380     10.032052827400     15.556133670300     18.510914509700
     267   89  2   0.42380     10.629134286500     14.652441182800     17.288842451900
     268   90  1  -0.84760    -15.084529478000     14.917271707800     -2.030505748720
     269   90  2   0.42380    -15.291823588700     15.367907736500     -2.898812331250
     270   90  2   0.42380    -14.828537449400     15.604781456200     -1.350948225730
     271   91  1  -0.84760     -6.759982558540     -5.763357584790    -15.947239340500
     272   91  2   0.42380     -5.789815209690     -5.941416711950    -15.782708910300
     273   91  2   0.42380     -7.182034786540     -5.416905023960    -15.109478909400
     274   92  1  -0.84760     -6.612073028540     -7.772589624070      5.798388543030
     275   92  2   0.42380     -5.673232040040     -8.110870708550      5.862758615280
     276   92  2   0.42380     -6.704313392510     -7.198020770770      4.985146667530
     277   93  1  -0.84760    -16.552252399300      1.037122872670     -3.592535041670
     278   93  2   0.42380    -16.315872580500      2.000376847480     -3.464995395770
     279   93  2   0.42380    -17.508815991300      0.892330778115     -3.339510648000
     280   94  1  -0.84760    -14.639887104300     -5.203906888090      6.263282039650
     281   94  2   0.42380    -14.906387502800     -4.507182613470      5.597284425000
     282   94  2   0.42380    -14.520443243600     -4.778910927360      7.160562150600
     283   95  1  -0.84760     -5.231036254530    -11.539830687900     -1.206803407820
     284   95  2   0.42380     -5.665529593720    -10.833723485800     -0.647671797756
     285   95  2   0.42380     -5.512701284670    -11.430362602900     -2.160051302740
     286   96  1  -0.84760    -17.695691285200    -14.763117903300     -2.436640756840
     287   96  2   0.42380    -18.134103414600    -14.885880986000     -3.326991266660
     288   96  2   0.42380    -16.909616300500    -14.152626031200     -2.533521056900
     289   97  1  -0.84760     -0.220205749616     14.413288481800      6.329722653030
     290   97  2   0.42380     -1.199622678410     14.357175710600      6.135831352320
     291   97  2   0.42380      0.143466001259     15.269949593800      5.963833876540
     292   98  1  -0.84760    -18.290152819900      7.274486552950    -13.500626636700
     293   98  2   0.42380    -18.756645387200      7.813767195960    -12.799512471400
     294   98  2   0.42380    -17.312933158800      7.231530310020    -13.292788971400
     295   99  1  -0.84760     16.143167277200    -18.661135671800     -8.982689972850
     296   99  2   0.42380     15.149377077900    -18.772044389400     -8.973729166340
     297   99  2   0.42380     16.377754555300    -17.793219724100     -9.420514956840
     298  100  1  -0.84760    -13.696400390000    -14.406600096000     16.554363427400
     299  100  2   0.42380    -13.397886119000    -13.674021033500     17.166096332500
     300  100  2   0.42380    -13.271578373800    -14.285541381200     15.657217373500
     301  101  1  -0.84760     13.587081233200      8.911535330850    -13.311077467100
     302  101  2   0.42380     13.196652216300      8.598188348730    -14.176744176400
     303  101  2   0.42380     14.285950073100      8.264180029400    -13.006917216100
     304  102  1  -0.84760     15.673774898800     -8.602900345250     11.262179560500
     305  102  2   0.42380     16.444531276100     -8.040855036170     10.962113438700
     306  102  2   0.42380     15.996239464000     -9.525791773280     11.472626742200
     307  103  1  -0.84760     15.905360407200     16.804643237700      9.008976211810
     308  103  2   0.42380     15.220614318000     17.531932690000      9.055590006980
     309  103  2   0.42380     16.802563347600     17.175722728500      9.248406567550
     310  104  1  -0.84760     -7.394473133180    -18.430483105800     18.458108537500
     311  104  2   0.42380     -6.953410932130    -19.058940463720     19.098815556320
     312  104  2   0.42380     -7.081354489900    -17.497803746300     18.637178154500
     313  105  1  -0.84760     -0.938798441308      6.963157861000     -3.783966761650
     314  105  2   0.42380     -0.391989434594      7.787937146360     -3.639956204350
     315  105  2   0.42380     -1.909992554410      7.190378711210     -3.712184591780
     316  106  1  -0.84760     14.974646063000     16.761859351800    -13.451731277600
     317  106  2   0.42380     14.570279346100     16.275732004300    -12.677026327200
     318  106  2   0.42380     14.269728734200     17.302854239700    -13.910442614700
     319  107  1  -0.84760     10.339386295400    -18.492912215300    -18.236156861600
     320  107  2   0.42380     11.136903373800    -17.976373977300    -18.547853442200
     321  107  2   0.42380     10.422071416600    -19.444500935820    -18.532200908700
     322  108  1  -0.84760      0.351748157248     17.772040520500     -3.545777105390
     323  108  2   0.42380      0.692927371765     18.711692375300     -3.520259753150
     324  108  2   0.42380     -0.202548235706     17.640900958100     -4.367700413200
     325  109  1  -0.84760     17.481769975800     15.553294055500      4.442252791590
     326  109  2   0.42380     16.579170457200     15.515823464800      4.013405425020
     327  109  2   0.42380     18.163781937800     15.818880601600      3.760839942930
     328  110  1  -0.84760      0.183078584036      0.341522602280      5.289499740910
     329  110  2   0.42380      0.593695359581      1.121140029650      4.816646137160
     330  110  2   0.42380     -0.659963525293      0.632402086575      5.741903462730
     331  111  1  -0.84760      1.596960041090    -10.392581906500      0.162821149070
     332  111  2   0.42380      1.017904532190    -10.878759735700     -0.491644920337
     333  111  2   0.42380      1.711103979120     -9.444286545180     -0.133332643825
     334  112  1  -0.84760    -11.622146406400     -6.647233091600     -8.429209901910
     335  112  2   0.42380    -11.143088140700     -7.369717932910     -8.927726533670
     336  112  2   0.42380    -12.427997097000     -7.031227429700     -7.978484916200
     337  113  1  -0.84760     11.483125273300     -1.404612240320      1.848916490870
     338  113  2   0.42380     10.615725684700     -1.883406247880      1.713364832410
     339  113  2   0.42380     12.002275541600     -1.854675001470      2.575502005420
     340  114  1  -0.84760     -6.399125000670     18.714104879900    -15.193825404700