LAMMPS Atom File

         4500 atoms
         3000 bonds
         1500 angles
           0 dihedrals
           0 impropers

           2 atom types
           1 bond types
           1 angle types

         0.0  46.3720594591 xlo xhi
         0.0  46.3720594591 ylo yhi
         0.0  46.3720594591 zlo zhi

Masses

         1   15.9994
         2   1.00794

Atoms

       1    1  1  -0.84760    -15.345590194400      6.995121956580    -16.601558927900
       2    1  2   0.42380    -16.212372724000      7.220454521950    -17.046433383700
       3    1  2   0.42380    -15.493599461900      6.266194863960    -15.933158935100
       4    2  1  -0.84760    -20.058888705900    -14.541175705600    -13.053560318200
       5    2  2   0.42380    -21.015736000200    -14.504047139800    -13.341769834000
       6    2  2   0.42380    -19.701902988300    -15.463564570900    -13.201072956900
       7    3  1  -0.84760    -12.517148680800     18.153143413400     -9.078749658470
       8    3  2   0.42380    -11.610967787000     18.278104719700     -8.674743644130
       9    3  2   0.42380    -12.793592065600     18.994139366100     -9.543835524230
      10    4  1  -0.84760     22.837709521400    -13.742735705000      7.487421192530
      11    4  2   0.42380     22.753969011400    -14.320199904400      8.299531176120
      12    4  2   0.42380     23.356673862625    -14.229233722900      6.784572922180
      13    5  1  -0.84760     -0.554178164541     11.122613046900    -11.465240713000
      14    5  2   0.42380     -0.919366286785     12.003673190300    -11.765857843400
      15    5  2   0.42380     -0.538159150510     10.487461885700    -12.237462438700
      16    6  1  -0.84760     -6.301710866910    -16.491861518700      8.199493809390
      17    6  2   0.42380     -6.389499902770    -16.852560963700      7.270952482620
      18    6  2   0.42380     -7.210239493530    -16.389439579900      8.604568470510
      19    7  1  -0.84760    -14.559013770500     -6.701085734820    -22.683640853500
      20    7  2   0.42380    -14.858111809700     -7.634240153810    -22.883047957700
      21    7  2   0.42380    -14.255494269400     -6.260630764050    -23.528552287425
      22    8  1  -0.84760     20.056164052300     20.144503190100    -15.720702641700
      23    8  2   0.42380     19.494851493000     19.411294220600    -16.104542214900
      24    8  2   0.42380     20.294390760200     19.921831575500    -14.775363872900
      25    9  1  -0.84760    -15.364593582300      2.296913305010     16.694737066700
      26    9  2   0.42380    -15.578369918200      3.249423714530     16.477887815000
      27    9  2   0.42380    -15.524562473800      1.727507088530     15.888395628800
      28   10  1  -0.84760    -10.944699639700    -20.627779992300      2.546721175770
      29   10  2   0.42380    -10.331865204500    -20.209885026100      3.217390805520
      30   10  2   0.42380    -11.883965591400    -20.596442903300      2.888477607790
      31   11  1  -0.84760     -0.441774941144     11.209290871600     13.085689758300
      32   11  2   0.42380     -0.453643449147     12.172597429500     12.817548724500
      33   11  2   0.42380     -0.599436697919     11.135442649500     14.070417746400
      34   12  1  -0.84760    -16.376950459000      9.125005026550     19.370948783900
      35   12  2   0.42380    -15.400004117100      9.027141393230     19.560681634000
      36   12  2   0.42380    -16.568337251700     10.063566997600     19.083768488300
      37   13  1  -0.84760    -19.673842760700     15.884903630200     10.929691295800
      38   13  2   0.42380    -19.678551101500     16.455177786300     10.108250355600
      39   13  2   0.42380    -20.462299756100     16.115367631000     11.499973603800
      40   14  1  -0.84760      9.650633412550      0.734036747335     16.896524001400
      41   14  2   0.42380     10.019538077900      0.382275215005     17.756857176600
      42   14  2   0.42380      9.461225110510      1.711479328120     16.989961126700
      43   15  1  -0.84760    -11.540929777600    -21.680272562500     -8.856530230500
      44   15  2   0.42380    -11.762008227400    -20.822444022200     -9.320485524110
      45   15  2   0.42380    -12.132448240900    -22.408483404300     -9.202673087690
      46   16  1  -0.84760    -21.048354227500     10.042543015100     -2.558192349440
      47   16  2   0.42380    -20.870049582700      9.449766863290     -1.772810985070
      48   16  2   0.42380    -20.763251153000     10.976442751200     -2.342443606970
      49   17  1  -0.84760      2.782871779860      2.281311194990     16.350216977500
      50   17  2   0.42380      2.149655206650      1.549032784920     16.099607517200
      51   17  2   0.42380      3.076716376340      2.157999936660     17.298082836500
      52   18  1  -0.84760     -9.822227956670      9.059856059270     10.241270245100
      53   18  2   0.42380     -8.849641851740      9.020176348630     10.470402933900
      54   18  2   0.42380    -10.231822612800      9.867704965450     10.665077232400
      55   19  1  -0.84760     13.595521910900     -2.443855158530     16.993638050000
      56   19  2   0.42380     13.842847175300     -3.199872852500     16.387612093500
      57   19  2   0.42380     13.974708738500     -1.591062002190     16.634526392800
      58   20  1  -0.84760     -8.418943723730     21.192061897300     14.330041890100
      59   20  2   0.42380     -8.943043791620     21.386360290400     15.159238641900
      60   20  2   0.42380     -7.866795160480     21.990496329300     14.089970188500
      61   21  1  -0.84760      9.777174719710     -7.291385261260    -21.714631497100
      62   21  2   0.42380      9.736303827370     -7.946563133380    -20.960263201100
      63   21  2   0.42380     10.547299663600     -7.517475748130    -22.311113401700
      64   22  1  -0.84760    -20.186760933400     11.171136991700    -16.589520591500
      65   22  2   0.42380    -20.492325480400     10.243239754700    -16.803148832300
      66   22  2   0.42380    -19.206830110500     11.249817814400    -16.772673288300
      67   23  1  -0.84760    -15.739360551700    -17.346943170700    -22.221053216900
      68   23  2   0.42380    -15.734801763100    -18.224718259800    -22.700104477600
      69   23  2   0.42380    -14.857664132700    -16.892807405000    -22.349006845500
      70   24  1  -0.84760     16.179996528200    -11.272242676200     10.991384338000
      71   24  2   0.42380     16.157199954400    -11.848883481900     10.174704659500
      72   24  2   0.42380     16.686934512600    -11.739831932700     11.715521180800
      73   25  1  -0.84760    -10.536248569000     -7.926489514100    -13.893745266900
      74   25  2   0.42380     -9.577734657070     -7.661110295180    -13.789702243400
      75   25  2   0.42380    -11.124334598600     -7.162739488130    -13.627586067100
      76   26  1  -0.84760     12.682382858500     11.213886811700      4.465025871030
      77   26  2   0.42380     12.988394642200     12.060141555200      4.028895503570
      78   26  2   0.42380     13.454887143200     10.779281677500      4.928011299980
      79   27  1  -0.84760     11.091054920700     -0.324458874040      0.406843640158
      80   27  2   0.42380     11.738603303800     -0.007732860706      1.099927851560
      81   27  2   0.42380     10.529012922900      0.443642445427      0.100038888430
      82   28  1  -0.84760     -8.145391723530     10.097764581600     -2.622811595830
      83   28  2   0.42380     -7.893876466330      9.602697949860     -3.454466034630
      84   28  2   0.42380     -8.855181150390     10.769051025100     -2.836291056690
      85   29  1  -0.84760     -0.040343854818     17.049622618800     -3.196882969500
      86   29  2   0.42380      0.822082695423     16.543440522500     -3.197244642390
      87   29  2   0.42380     -0.742291931437     16.512471541400     -3.664576905550
      88   30  1  -0.84760     -2.213415561030    -20.539013370600    -17.252474859400
      89   30  2   0.42380     -1.860368239540    -21.259052055400    -17.849887515100
      90   30  2   0.42380     -3.010618355640    -20.112492861400    -17.679731175300
      91   31  1  -0.84760     16.050515515400      2.212870155350      9.079576598260
      92   31  2   0.42380     15.482801801200      1.389648589400      9.082295434880
      93   31  2   0.42380     15.463697743800      3.022485662820      9.092523915150
      94   32  1  -0.84760      4.349946054540    -21.389563700300      7.272071394500
      95   32  2   0.42380      3.580417157640    -21.823642506000      6.803668931580
      96   32  2   0.42380      5.130211603400    -21.332823126400      6.649202081940
      97   33  1  -0.84760    -17.581415987700     -8.732013210540    -11.893154414000
      98   33  2   0.42380    -17.782391179600     -8.031629288030    -11.208266588700
      99   33  2   0.42380    -16.668693789400     -8.576528542100    -12.270993939000
     100   34  1  -0.84760     -7.582648864060    -11.268413292100    -13.147651044300
     101   34  2   0.42380     -6.702308377940    -11.712840095300    -12.981863695500
     102   34  2   0.42380     -8.028811240440    -11.076152250900    -12.273594509600
     103   35  1  -0.84760    -15.339611539100     12.209274519800     10.507223062000
     104   35  2   0.42380    -16.339309614200     12.214544768500     10.483223414700
     105   35  2   0.42380    -14.985314312600     12.773035297200      9.761135090550
     106   36  1  -0.84760      9.087482370300    -19.279633522200    -17.430089672000
     107   36  2   0.42380      9.177019669700    -19.913620417900    -16.661946659300
     108   36  2   0.42380      8.589828000960    -19.725567620200    -18.174053991600
     109   37  1  -0.84760      0.157153642653      9.206951593490     21.546542000600
     110   37  2   0.42380      0.697443372051     10.014541850300     21.310141947000
     111   37  2   0.42380     -0.593042812034      9.104885487420     20.893252027200
     112   38  1  -0.84760      9.737938782730      4.870607454760     -2.869627400390
     113   38  2   0.42380      9.521420727600      5.620368033710     -3.494910541110
     114   38  2   0.42380     10.469820130900      5.154163025380     -2.249993693620
     115   39  1  -0.84760    -22.530336199500    -20.207557342800    -17.650131686300
     116   39  2   0.42380    -23.208605216525    -20.399791641600    -18.359354581400
     117   39  2   0.42380    -21.714859255800    -20.764056939200    -17.809208879900
     118   40  1  -0.84760      7.193845745960     17.992924202600    -22.481213402200
     119   40  2   0.42380      6.379654620760     18.507818628100    -22.212928959400
     120   40  2   0.42380      7.830283390810     17.950670906300    -21.711043431800
     121   41  1  -0.84760      8.331511353260     15.816568402900     22.334709900000
     122   41  2   0.42380      7.399191967240     16.101989681700     22.112639514500
     123   41  2   0.42380      8.933534341760     16.615047109200     22.334432320900
     124   42  1  -0.84760    -13.794743723900    -14.939890261200     17.667056798200
     125   42  2   0.42380    -14.296439449500    -15.157571979200     16.829849494900
     126   42  2   0.42380    -14.303763053200    -14.258550793100     18.193056657100
     127   43  1  -0.84760     19.049131579700    -20.818351770500    -17.222494920900
     128   43  2   0.42380     18.165864633100    -20.724985656500    -17.681975355600
     129   43  2   0.42380     19.393996913900    -21.748438109800    -17.349014889900
     130   44  1  -0.84760    -12.752938188500      0.902649400156    -10.766826152800
     131   44  2   0.42380    -12.417074998500      0.026274825659    -11.112026852000
     132   44  2   0.42380    -13.042454897300      0.797290613875     -9.815469436570
     133   45  1  -0.84760     -8.750258951020      1.830195362200    -13.647930070300
     134   45  2   0.42380     -8.500065263790      0.911445540575    -13.953383641500
     135   45  2   0.42380     -8.745669710490      1.861939624100    -12.648444582300
     136   46  1  -0.84760      4.715095643860      9.190375116050     14.318351117700
     137   46  2   0.42380      4.259385858680     10.063870936400     14.147080444200
     138   46  2   0.42380      5.675822482210      9.353959250940     14.542503237700
     139   47  1  -0.84760      1.533426276120     11.788074331000      6.222704289050
     140   47  2   0.42380      0.598313002749     11.445215239100      6.133201165930
     141   47  2   0.42380      1.840286494840     11.676558907200      7.167903271500
     142   48  1  -0.84760     10.314929589200    -15.764081247600     12.236622528800
     143   48  2   0.42380      9.422645551280    -16.039581591900     11.878951232800
     144   48  2   0.42380     10.718674594100    -16.523741166700     12.746433060600
     145   49  1  -0.84760     11.961774282900    -15.963620272500    -19.754559518500
     146   49  2   0.42380     11.940429276000    -15.589260048900    -20.681597173500
     147   49  2   0.42380     12.666534713700    -16.670708808500    -19.696779439600
     148   50  1  -0.84760     -5.731844685470      3.751869846750    -20.959680478400
     149   50  2   0.42380     -5.914233254540      2.930837917140    -21.500643490500
     150   50  2   0.42380     -4.745592138660      3.912082811770    -20.919211728200
     151   51  1  -0.84760    -16.044634133400      5.830326606310     -7.301274904370
     152   51  2   0.42380    -16.552534215100      4.990726946370     -7.108635557240
     153   51  2   0.42380    -16.591202488800      6.421979508180     -7.893904532850
     154   52  1  -0.84760     12.135765795000     17.108595692000     19.807253986500
     155   52  2   0.42380     12.301432452700     16.881882728600     18.847485373400
     156   52  2   0.42380     12.038366108200     16.265913431400     20.336781992100
     157   53  1  -0.84760     10.862879024600     -3.346358547240     -3.010892015200
     158   53  2   0.42380     11.432704992800     -2.564082566940     -2.759212344650
     159   53  2   0.42380     11.301566623900     -4.190840375740     -2.703640275560
     160   54  1  -0.84760    -12.623892231400    -10.072055610900      3.033436019180
     161   54  2   0.42380    -13.213418401700    -10.220007907100      2.239352262550
     162   54  2   0.42380    -12.999484259700    -10.558055899000      3.822571209260
     163   55  1  -0.84760     -8.683691960250     -3.656113698770     -2.013558792710
     164   55  2   0.42380     -9.448653512860     -3.248647700980     -2.512362645610
     165   55  2   0.42380     -8.083069973100     -2.931880497940     -1.674826598540
     166   56  1  -0.84760    -23.055569194000     -5.890693685580     -7.006648527240
     167   56  2   0.42380    -22.558813540200     -5.684682325370     -7.849734015120
     168   56  2   0.42380    -22.650116227800     -5.380961086620     -6.247846464910
     169   57  1  -0.84760    -10.102692279000     -6.648443828660     21.521882182900
     170   57  2   0.42380     -9.766819042450     -6.316952163800     20.640234608700
     171   57  2   0.42380     -9.695557727540     -6.108040726170     22.258228530600
     172   58  1  -0.84760      4.532645363160     13.058143792900     12.008899755000
     173   58  2   0.42380      5.328343119000     13.386789064600     11.500119481500
     174   58  2   0.42380      3.779337558990     12.885407851100     11.374321433200
     175   59  1  -0.84760     -9.363951049890      6.221681314800     21.183544528600
     176   59  2   0.42380     -8.479796939560      6.185584104930     21.649343305500
     177   59  2   0.42380     -9.442156215450      5.446745181650     20.556361986100
     178   60  1  -0.84760    -15.836950917200      2.187248731070     -2.908071420510
     179   60  2   0.42380    -14.921702386800      2.161360354620     -2.506014310730
     180   60  2   0.42380    -16.451888442700      2.694813170060     -2.304556565700
     181   61  1  -0.84760      0.798545662084     21.749597090800     14.476826713700
     182   61  2   0.42380      1.350309769220     21.472153697900     13.690327169000
     183   61  2   0.42380      0.178114476763     21.006477005600     14.727501170700
     184   62  1  -0.84760     -9.944594546800     20.632171169100     -1.697112583340
     185   62  2   0.42380     -9.922661974260     20.821594265700     -0.715462007645
     186   62  2   0.42380     -9.441804862650     19.788447175800     -1.885081614180
     187   63  1  -0.84760    -15.274346024000     20.241870237000      0.862461388802
     188   63  2   0.42380    -14.456911435700     19.931921689900      1.347984397570
     189   63  2   0.42380    -16.082793963500     20.063948389600      1.423492355330
     190   64  1  -0.84760     -7.510445745220     15.227877509500    -21.253433955600
     191   64  2   0.42380     -7.275429036860     14.264488952300    -21.382467418600
     192   64  2   0.42380     -6.995112588470     15.786605876000    -21.903244966600
     193   65  1  -0.84760    -14.714763461500     14.310966218100    -15.295598223200
     194   65  2   0.42380    -15.212473341600     14.267325852900    -14.429353226700
     195   65  2   0.42380    -14.822856872000     13.446226661000    -15.786048335800
     196   66  1  -0.84760    -11.839605579500     -5.289707000460    -13.009411189900
     197   66  2   0.42380    -11.056283529800     -4.694757738780    -12.829294720800
     198   66  2   0.42380    -12.684498935500     -4.807910533250    -12.776973281500
     199   67  1  -0.84760      0.891603096204    -22.102294840100     17.546296639300
     200   67  2   0.42380      1.808064657420    -21.711784024300     17.633471805100
     201   67  2   0.42380      0.487367248846    -22.209917777200     18.454597626300
     202   68  1  -0.84760    -21.647219730700    -20.565132386200     10.274970915300
     203   68  2   0.42380    -22.554817748400    -20.403809417400      9.887361913730
     204   68  2   0.42380    -21.647927303600    -20.311263568800     11.242209315500
     205   69  1  -0.84760    -12.856006340000     -3.614636013840     12.076694321400
     206   69  2   0.42380    -11.871178511200     -3.473851797450     12.178153436500
     207   69  2   0.42380    -13.221825710500     -4.025122249900     12.911965078800
     208   70  1  -0.84760     -3.154393702680    -18.445922117800      5.358010230080
     209   70  2   0.42380     -2.862394767090    -18.307524253500      6.304362517960
     210   70  2   0.42380     -4.152243318300    -18.500468861500      5.321667454200
     211   71  1  -0.84760     17.166418173900    -17.185468911900      3.641667540130
     212   71  2   0.42380     17.435013910600    -17.393914277800      2.701238457410
     213   71  2   0.42380     17.983070290900    -17.000381602200      4.188313685000
     214   72  1  -0.84760     13.396435277200      1.700559184080     22.034336877600
     215   72  2   0.42380     14.099206653000      2.068617201330     22.643143652700
     216   72  2   0.42380     12.540451208000      2.198335373600     22.174015574600
     217   73  1  -0.84760      0.148412648583     -6.584043689260      7.462374339560
     218   73  2   0.42380      0.028364485160     -6.047933879460      8.297942834840
     219   73  2   0.42380      0.931499801456     -6.231694419250      6.949905313250
     220   74  1  -0.84760     21.168671735000      8.107579315410    -20.383884458100
     221   74  2   0.42380     20.436152966100      7.581402053770    -20.815803134000
     222   74  2   0.42380     21.591679714000      8.708708441760    -21.061902174100
     223   75  1  -0.84760     12.284767842500    -14.169116152700      4.594510341640
     224   75  2   0.42380     12.198416725800    -15.158971404800      4.707337929110
     225   75  2   0.42380     13.247383254800    -13.908106349700      4.666935824870
     226   76  1  -0.84760     -1.831839143300      4.865381132060    -13.453718536500
     227   76  2   0.42380     -1.737035463250      5.764508256890    -13.881015477300
     228   76  2   0.42380     -1.599933691010      4.931434080380    -12.483225430300
     229   77  1  -0.84760     14.899453125900      2.734300233680    -22.408354452900
     230   77  2   0.42380     14.773462912100      3.715573727750    -22.554055502500
     231   77  2   0.42380     15.868738232500      2.541806070650    -22.255278069000
     232   78  1  -0.84760     -0.440276297149    -16.679983929100     -7.666548274510
     233   78  2   0.42380      0.311724452723    -16.384086078000     -7.077532711150
     234   78  2   0.42380     -0.309455933243    -16.308878789900     -8.585877925960
     235   79  1  -0.84760    -22.667242971500    -13.298128293500     19.987591469400
     236   79  2   0.42380    -22.104624732200    -12.756604288300     20.612261357000
     237   79  2   0.42380    -23.166714670200    -13.992422200400     20.505745879800
     238   80  1  -0.84760      9.174792212310     -6.371566317010     -7.622554794010
     239   80  2   0.42380      8.815460697380     -7.304734526700     -7.613725592000
     240   80  2   0.42380      8.421801615420     -5.723358783520     -7.509275693840
     241   81  1  -0.84760     17.748582506200      7.180580596630     17.988822236000
     242   81  2   0.42380     17.312787611800      7.193132423890     17.088863758200
     243   81  2   0.42380     17.546216557300      6.314057150200     18.445095333500
     244   82  1  -0.84760     19.186335936700    -22.408940113900     22.517458387200
     245   82  2   0.42380     19.130381100100    -21.422243160300     22.364820980000
     246   82  2   0.42380     20.118750506000    -22.652580548400     22.784371124900
     247   83  1  -0.84760     12.382763416700     -6.319569445780    -11.543643540800
     248   83  2   0.42380     13.198086055200     -6.505377386840    -12.092026987200
     249   83  2   0.42380     12.624215719700     -6.330076446620    -10.573287735800
     250   84  1  -0.84760    -15.046032918200      4.884709315100      4.605017517790
     251   84  2   0.42380    -15.371206022900      5.510744149200      5.313778999850
     252   84  2   0.42380    -15.793530039400      4.679159707770      3.973355097870
     253   85  1  -0.84760      7.754898838920     17.864204894500     -6.016293060400
     254   85  2   0.42380      7.477333772280     17.162898701600     -6.672895876110
     255   85  2   0.42380      6.946100448030     18.224218641800     -5.551282023260
     256   86  1  -0.84760     22.199795136400    -11.734004354400      0.881293064399
     257   86  2   0.42380     22.472198681600    -12.612708062300      0.489277628202
     258   86  2   0.42380     22.575681339800    -11.649858303500      1.804130538830
     259   87  1  -0.84760      9.338171249730     10.286598386700     -5.192260733320
     260   87  2   0.42380      9.811096201090      9.408238655850     -5.122790066070
     261   87  2   0.42380      9.500316681220     10.819079275600     -4.361494242690
     262   88  1  -0.84760      8.209487888080     10.234319895900     12.937370587000
     263   88  2   0.42380      7.797469478460     11.139492028100     13.041793962400
     264   88  2   0.42380      8.804866760150     10.229780335700     12.133938330300
     265   89  1  -0.84760     -1.824866731670     19.618019987700     -8.824252976090
     266   89  2   0.42380     -2.532672336860     19.374269851300     -8.161231787670
     267   89  2   0.42380     -2.249173528020     19.811157441000     -9.708934651430
     268   90  1  -0.84760     -1.061161017520      5.298127212500     -8.203786138570
     269   90  2   0.42380     -1.448129214150      6.172522009730     -8.496513577290
     270   90  2   0.42380     -0.259940941331      5.463989461980     -7.628863444900
     271   91  1  -0.84760     21.705980854200     22.314492390900     22.799591775400
     272   91  2   0.42380     21.949798753200     21.768839168900     21.997834085500
     273   91  2   0.42380     21.067306366700     21.799665289000     23.371472841925
     274   92  1  -0.84760     13.231945265400     18.877636296400     21.905687022600
     275   92  2   0.42380     13.061229679200     18.646550539400     20.947848016600
     276   92  2   0.42380     12.848380067500     18.165609697000     22.493816141700
     277   93  1  -0.84760    -20.522610648000     21.696069912000     -4.879571424770
     278   93  2   0.42380    -21.302084714900     21.226955410300     -5.294724123470
     279   93  2   0.42380    -19.748555111600     21.065951644300     -4.818016609280
     280   94  1  -0.84760    -11.059918214800     -8.465365818750    -17.570935745100
     281   94  2   0.42380    -11.070201647100     -8.006179905120    -16.682655075600
     282   94  2   0.42380    -11.633831948600     -7.959031617490    -18.214557297400
     283   95  1  -0.84760     -0.734640267309    -20.219456981100      4.458312393730
     284   95  2   0.42380     -0.170017857238    -19.496101112400      4.060873315020
     285   95  2   0.42380     -1.667624421450    -19.882497702400      4.584799597240
     286   96  1  -0.84760     -6.132654834720    -10.153623226500      7.477806920420
     287   96  2   0.42380     -5.330458264100     -9.966169149300      6.910936890320
     288   96  2   0.42380     -6.740646577340    -10.785107305700      6.996585663020
     289   97  1  -0.84760    -20.258358059500      1.269338214480     -4.396915867390
     290   97  2   0.42380    -19.765514186900      2.001549751950     -4.866991586380
     291   97  2   0.42380    -19.647079348800      0.489586440531     -4.261544124430
     292   98  1  -0.84760    -16.806612149700     -7.859599330200      8.313335014710
     293   98  2   0.42380    -16.227269704400     -7.313564817160      8.918486765600
     294   98  2   0.42380    -17.515195466200     -7.277004312690      7.915223561540
     295   99  1  -0.84760     -3.353812860850    -12.852316698600     -0.126409679561
     296   99  2   0.42380     -2.910083445800    -13.661853228000      0.257979203821
     297   99  2   0.42380     -3.063622705670    -12.040743403200      0.380678537643
     298  100  1  -0.84760    -20.580477857700    -17.651106448800     -1.951766732630
     299  100  2   0.42380    -20.950463720900    -18.437761659200     -1.457515742740
     300  100  2   0.42380    -21.314069477000    -16.996041489100     -2.132690016900
     301  101  1  -0.84760    -19.117289931600    -15.972931449200     10.683492421100
     302  101  2   0.42380    -19.800237073800    -15.671327641800     11.348788103000
     303  101  2   0.42380    -19.130485359800    -16.970912726700     10.621369555100
     304  102  1  -0.84760     -0.585208286322     18.154888736600      5.328550320450
     305  102  2   0.42380      0.342850149692     18.278751573200      4.977316015380
     306  102  2   0.42380     -0.552250521563     18.028249735200      6.319951525330
     307  103  1  -0.84760    -17.973563689800     17.513315342100    -14.452124399400
     308  103  2   0.42380    -17.245803193200     16.911612188300    -14.123007437900
     309  103  2   0.42380    -18.790733271300     17.386440315300    -13.889864137000
     310  104  1  -0.84760     20.139507861200    -20.955088373100     -9.213298229980
     311  104  2   0.42380     20.775863552900    -21.284871095100     -8.515949830830
     312  104  2   0.42380     20.536396711700    -20.164464382200     -9.679552393950
     313  105  1  -0.84760    -14.507086617800    -16.044852908000     21.030146536300
     314  105  2   0.42380    -13.638127864400    -15.890482920000     21.500338616000
     315  105  2   0.42380    -14.426701221800    -16.844650037900     20.435282905600
     316  106  1  -0.84760     19.576860577200     11.021442987800    -19.194784049800
     317  106  2   0.42380     19.490624062400     10.422625053500    -19.991012876900
     318  106  2   0.42380     19.970089056000     10.507611273000    -18.432322029600
     319  107  1  -0.84760     19.183186456100    -10.529119019000     13.783819903300
     320  107  2   0.42380     18.339856700400    -10.802096108000     14.246722087300
     321  107  2   0.42380     19.034946057400     -9.664653875590     13.303481689100
     322  108  1  -0.84760     17.671964060500     18.529863539700      9.681645885670
     323  108  2   0.42380     18.277773228700     19.034030239300     10.297122279100
     324  108  2   0.42380     18.181994853700     17.788626124000      9.245256514020
     325  109  1  -0.84760     -6.928619297540    -21.941322357700    -21.852392733600
     326  109  2   0.42380     -7.409844548240    -21.068894267700    -21.767002536100
     327  109  2   0.42380     -5.957645526030    -21.807174484600    -21.654366767700
     328  110  1  -0.84760     -3.033714295000      5.335112050820     -6.329419383340
     329  110  2   0.42380     -3.858869681770      5.515587497150     -6.864720421030
     330  110  2   0.42380     -2.477178251580      4.647901706880     -6.796334338730
     331  111  1  -0.84760     16.205486296200    -22.975786843700    -12.889124053400
     332  111  2   0.42380     16.201913464100    -22.315838888200    -13.640426875700
     333  111  2   0.42380     16.268629498200    -23.902424196425    -13.259739963200
     334  112  1  -0.84760     12.002409375000     21.776283992100    -22.071190297300
     335  112  2   0.42380     12.407581674600     20.954032753200    -22.470863048200
     336  112  2   0.42380     12.624865668200     22.548951625200    -22.195821319200
     337  113  1  -0.84760    -15.198473447700     15.249791555700     -1.505183116160
     338  113  2   0.42380    -14.809643697100     14.355493767600     -1.283726819730
     339  113  2   0.42380    -14.705542881900     15.644855900700     -2.280388650590
     340  114  1  -0.84760     -1.973789309400     20.564842450000     -5.256195944520