LAMMPS Atom File

         4500 atoms
         3000 bonds
         1500 angles
           0 dihedrals
           0 impropers

           2 atom types
           1 bond types
           1 angle types

         0.0  96.4577707225 xlo xhi
         0.0  96.4577707225 ylo yhi
         0.0  96.4577707225 zlo zhi

Masses

         1   15.9994
         2   1.00794

Atoms

       1    1  1  -0.84760    -33.182645181400     12.949408096800    -36.180301995300
       2    1  2   0.42380    -32.893816843300     13.739580720300    -36.720862275200
       3    1  2   0.42380    -32.389771286400     12.556329832000    -35.714640675900
       4    2  1  -0.84760    -41.493343369200    -31.912223923900    -22.885860297000
       5    2  2   0.42380    -40.916583359400    -31.217887458200    -22.455459596000
       6    2  2   0.42380    -40.917122971900    -32.638142234200    -23.261376822100
       7    3  1  -0.84760    -21.765552069100     33.176838872300    -11.067821521400
       8    3  2   0.42380    -21.703146155200     33.026133594000    -10.081214496800
       9    3  2   0.42380    -21.490424909000     32.345148435800    -11.550103662400
      10    4  1  -0.84760     41.981788208500    -28.343780723400     16.190974128100
      11    4  2   0.42380     42.680303584200    -27.642195547800     16.050068090900
      12    4  2   0.42380     41.696996814500    -28.342798805200     17.149563142100
      13    5  1  -0.84760     -0.116695645358     22.850454571600    -23.658972589900
      14    5  2   0.42380     -0.200436155431     22.272990372200    -22.846862606300
      15    5  2   0.42380      0.402268695872     22.363956553700    -24.361820860300
      16    6  1  -0.84760    -14.918843030600    -34.056069416100     17.136163193100
      17    6  2   0.42380    -15.641479486700    -34.747266109000     17.129553808000
      18    6  2   0.42380    -14.159076415300    -34.373593959400     17.703554464500
      19    7  1  -0.84760    -36.267353132300    -12.553535395100     44.774701149000
      20    7  2   0.42380    -37.062256450300    -12.469296743700     45.375561003500
      21    7  2   0.42380    -36.292363725600    -13.439202341900     44.311054160700
      22    8  1  -0.84760     47.190620010800     43.043891984400    -33.236325031500
      23    8  2   0.42380     46.274548967800     42.651363187400    -33.318392001300
      24    8  2   0.42380     47.128160624100     43.952433294400    -32.823225148800
      25    9  1  -0.84760    -29.119065987400      2.778738291500     38.400269593800
      26    9  2   0.42380    -29.972491412000      3.197296360190     38.710872536200
      27    9  2   0.42380    -28.957111666500      1.934043322180     38.910427615200
      28   10  1  -0.84760    -22.291395716700    -41.421176185100      1.268074816120
      29   10  2   0.42380    -22.879145406200    -40.638454147500      1.063388435550
      30   10  2   0.42380    -22.857261568200    -42.229730211200      1.429432260320
      31   11  1  -0.84760      1.133569830920     21.886903499600     28.206420843900
      32   11  2   0.42380      2.062846045060     22.149655319000     27.946791879300
      33   11  2   0.42380      1.160015177870     21.370723294800     29.062492476300
      34   12  1  -0.84760    -34.030149537300     24.195680972400     34.986813725100
      35   12  2   0.42380    -33.347233912800     23.803215492100     34.370699209400
      36   12  2   0.42380    -34.081246074100     25.183782704700     34.841747841400
      37   13  1  -0.84760    -36.834120762900     35.464954605400     23.462296638600
      38   13  2   0.42380    -37.430452398200     34.820365394600     22.983868660800
      39   13  2   0.42380    -35.959435670100     35.023812005300     23.663093039900
      40   14  1  -0.84760     20.395618010200      3.491859895670     40.669206433800
      41   14  2   0.42380     20.159833260200      2.646792828300     41.149068084000
      42   14  2   0.42380     20.102407467400      3.426481704250     39.715396563000
      43   15  1  -0.84760    -20.113584273600    -39.176508915600    -10.462707277400
      44   15  2   0.42380    -19.801731128800    -38.719302541400    -11.295599795900
      45   15  2   0.42380    -20.020273518500    -40.166251184600    -10.570889272400
      46   16  1  -0.84760    -46.658062960800     17.746056243700     -5.883614298110
      47   16  2   0.42380    -45.660967139500     17.817290925400     -5.856678389200
      48   16  2   0.42380    -46.919431834600     16.802680802400     -6.087891287890
      49   17  1  -0.84760      5.608398920460      6.392432599560     36.005618907000
      50   17  2   0.42380      4.914553770880      7.110974781570     36.053326779400
      51   17  2   0.42380      5.834790385320      6.210704416390     35.048685381600
      52   18  1  -0.84760    -24.594384034700     10.549083100900     14.053300901400
      53   18  2   0.42380    -25.242427407400      9.938003720170     13.598744218800
      54   18  2   0.42380    -24.997656907100     10.890730975900     14.902210625600
      55   19  1  -0.84760     24.837127518900     -4.938652195730     37.482243477600
      56   19  2   0.42380     24.257776631200     -4.482113269040     38.157465483500
      57   19  2   0.42380     24.543470677900     -5.888993239600     37.379201932200
      58   20  1  -0.84760     -5.128917080960      1.929421560700    -10.743523366900
      59   20  2   0.42380     -5.877076287410      1.799749161290    -10.092798486000
      60   20  2   0.42380     -5.504679115520      2.145199355760    -11.644768525900
      61   21  1  -0.84760    -19.363463106100     42.349460645100     26.221620358800
      62   21  2   0.42380    -18.944356307700     41.988007600300     25.388733098800
      63   21  2   0.42380    -20.117476106500     41.754736586800     26.500488947400
      64   22  1  -0.84760     20.110073002200    -20.334097447100    -46.696767877500
      65   22  2   0.42380     19.526426412300    -20.356322337800    -45.885064291000
      66   22  2   0.42380     21.050727542400    -20.130241413400    -46.425453017100
      67   23  1  -0.84760    -41.615829896500     27.317949798900    -36.339550336700
      68   23  2   0.42380    -42.094815491500     26.530533273300    -36.727555510600
      69   23  2   0.42380    -40.860433412600     26.999537741300    -35.766846299900
      70   24  1  -0.84760    -32.123972187800    -37.377505584800     46.064403747200
      71   24  2   0.42380    -32.901973135300    -37.844567855200     46.484602939600
      72   24  2   0.42380    -31.673828988000    -36.800539389900     46.745932256900
      73   25  1  -0.84760     34.083794596100    -24.058283278300     21.813392373200
      74   25  2   0.42380     34.316420882600    -24.112506980200     20.842338924100
      75   25  2   0.42380     34.916723049200    -23.916308243300     22.348250561500
      76   26  1  -0.84760    -12.821805613000    -15.968520190500    -31.179050394900
      77   26  2   0.42380    -13.808605257100    -16.004205534500    -31.021085150400
      78   26  2   0.42380    -12.387839476600    -16.765043528100    -30.758070626800
      79   27  1  -0.84760     22.047406970400     23.096332203700      5.975190508620
      80   27  2   0.42380     21.157155381400     23.077575091300      6.430273225230
      81   27  2   0.42380     22.154150662500     23.962681191000      5.487291731840
      82   28  1  -0.84760     18.038058846800     -2.408609509680      1.591425061290
      83   28  2   0.42380     17.612019349200     -3.309158632580      1.504813146630
      84   28  2   0.42380     19.023898595200     -2.490820037880      1.445269598260
      85   29  1  -0.84760    -16.385913307300     19.474592461000     -7.606190948900
      86   29  2   0.42380    -16.640173995000     20.310695147600     -7.120100627860
      87   29  2   0.42380    -17.140243624000     18.819721065500     -7.560047383470
      88   30  1  -0.84760      0.252381185350     35.208427020500     -7.173192313850
      89   30  2   0.42380      1.015358954770     35.288933985500     -6.531800427430
      90   30  2   0.42380     -0.254271232719     36.070210645900     -7.198338094880
      91   31  1  -0.84760     -6.392742531850    -41.720373470100    -36.871275413000
      92   31  2   0.42380     -6.544704484530    -41.994071043500    -37.821010746300
      93   31  2   0.42380     -5.440487300830    -41.896532898900    -36.621920584200
      94   32  1  -0.84760     37.090250373500      7.886027862000     20.092143150500
      95   32  2   0.42380     37.260957768200      7.947740894520     19.108755898700
      96   32  2   0.42380     37.961990756400      7.830006241640     20.578897999300
      97   33  1  -0.84760      8.226153221880    -47.601584110300     15.604531640000
      98   33  2   0.42380      7.368522537060    -48.079303615500     15.794935639000
      99   33  2   0.42380      8.030114216400    -46.734324380600     15.146897212300
     100   34  1  -0.84760    -36.137672992900    -22.684954546500    -23.050914499200
     101   34  2   0.42380    -35.508631226100    -23.231181762800    -22.497794002700
     102   34  2   0.42380    -36.058298546400    -21.722076630200    -22.792910980700
     103   35  1  -0.84760    -18.773516151000    -19.862326550300    -23.726699080500
     104   35  2   0.42380    -18.441300796300    -20.550150860400    -23.081307202200
     105   35  2   0.42380    -19.763197417700    -19.760837844300    -23.625550512000
     106   36  1  -0.84760    -31.034458861900     26.250120288300     22.491867319100
     107   36  2   0.42380    -30.935352788700     26.456785540100     21.518487917200
     108   36  2   0.42380    -31.616230544800     25.444538043100     22.604023260300
     109   37  1  -0.84760     21.960466957200    -39.132969839900    -34.409080368400
     110   37  2   0.42380     22.449002022700    -39.804654207100    -34.966012680800
     111   37  2   0.42380     22.597068557000    -38.706469513900    -33.766557314300
     112   38  1  -0.84760     -0.006056536242     20.258954452200     45.471811760800
     113   38  2   0.42380     -0.620448507699     19.725036984800     44.890903297000
     114   38  2   0.42380     -0.539053476860     20.914406811500     46.006878547400
     115   39  1  -0.84760     22.224190674600      6.026178070610     -7.278482434020
     116   39  2   0.42380     22.862983328800      6.587070210930     -6.751847881470
     117   39  2   0.42380     21.304885260100      6.413510328930     -7.208831328550
     118   40  1  -0.84760     47.770867052300    -42.793083177200    -34.020290746700
     119   40  2   0.42380     47.025779729600    -42.473414423500    -34.605659664200
     120   40  2   0.42380     48.587747038527    -42.241658483700    -34.189518095000
     121   41  1  -0.84760     10.040873413600     35.836385100400    -44.796128322100
     122   41  2   0.42380     11.029091727500     35.989394922200    -44.792584535800
     123   41  2   0.42380      9.592902256950     36.538419944600    -44.242531970600
     124   42  1  -0.84760     18.088566555900     35.512671047800     45.041122713700
     125   42  2   0.42380     18.544233243200     36.367512028500     44.792899492100
     126   42  2   0.42380     17.239061265100     35.716839870900     45.527595583000
     127   43  1  -0.84760    -25.529480468000    -29.417554532100     36.892423904000
     128   43  2   0.42380    -25.039435411300    -29.122573838200     36.072154294300
     129   43  2   0.42380    -26.514578274300    -29.346357236300     36.735856802700
     130   44  1  -0.84760     39.007905759500    -37.213050861800    -32.671248180000
     131   44  2   0.42380     38.043805987400    -37.350478108000    -32.898460374900
     132   44  2   0.42380     39.446637947100    -38.100371612700    -32.529206099500
     133   45  1  -0.84760    -27.777110913400      4.719002077070    -24.941056695900
     134   45  2   0.42380    -27.911966869200      3.788304009830    -25.281078722900
     135   45  2   0.42380    -28.437414236600      4.907194602650    -24.214019492800
     136   46  1  -0.84760    -17.201486540200      3.937036108270    -30.459255575300
     137   46  2   0.42380    -17.729765549800      4.754169305760    -30.228572620600
     138   46  2   0.42380    -16.475499116100      4.180098160820    -31.102577500000
     139   47  1  -0.84760     13.861334688000     20.213319303800     33.514949716600
     140   47  2   0.42380     13.695765673000     21.193942427200     33.410234908400
     141   47  2   0.42380     14.376559808200     19.876265465400     32.726953659800
     142   48  1  -0.84760     -4.908482408800     28.028393717900     12.880900551100
     143   48  2   0.42380     -5.826263618070     28.023294553500     12.483846838900
     144   48  2   0.42380     -4.735329695350     27.152557005600     13.331376067900
     145   49  1  -0.84760     21.195604704900    -32.551604651900     27.438116753700
     146   49  2   0.42380     20.312337758300    -32.458238537900     26.978636319000
     147   49  2   0.42380     21.540470039200    -33.481690991200     27.311596784700
     148   50  1  -0.84760     32.433290557500    -34.024869341600    -40.279085421700
     149   50  2   0.42380     32.828935519000    -34.746915109800    -39.711533685600
     150   50  2   0.42380     32.105168144400    -34.418145934900    -41.137962131800
     151   51  1  -0.84760     -8.426255136470      5.070873389550    -44.683133438000
     152   51  2   0.42380     -8.936880496230      4.211844381230    -44.719615006600
     153   51  2   0.42380     -8.030775568140      5.261956104270    -45.581511591800
     154   52  1  -0.84760    -31.904863188400     12.329412058500    -15.779271339900
     155   52  2   0.42380    -31.556774336200     12.247111396300    -14.845429408900
     156   52  2   0.42380    -32.474638169900     11.536087884800    -15.993731653200
     157   53  1  -0.84760     26.462848743400     37.686144539800     39.267166675500
     158   53  2   0.42380     27.038579617700     36.908951405700     39.521144612900
     159   53  2   0.42380     25.506938093800     37.472850959700     39.469009878900
     160   54  1  -0.84760     22.595698930800     -6.960706280240     -6.262907773760
     161   54  2   0.42380     23.451284899200     -6.451095244210     -6.171972397310
     162   54  2   0.42380     21.847327907500     -6.429099855810     -5.866252481290
     163   55  1  -0.84760    -24.476980414700    -16.394965841500     11.820376381800
     164   55  2   0.42380    -24.024749229800    -15.932425014700     12.582966008600
     165   55  2   0.42380    -25.322032164300    -16.821323870000     12.143031572500
     166   56  1  -0.84760    -14.445055082900     -8.308054122010      1.905495107150
     167   56  2   0.42380    -15.019434918600     -7.966287896620      2.649325498820
     168   56  2   0.42380    -13.808793822800     -7.591551061180      1.619496903080
     169   57  1  -0.84760     45.088466442800    -12.002635531000    -16.650159637800
     170   57  2   0.42380     44.359152539500    -12.306933569600    -17.262943395800
     171   57  2   0.42380     45.276882915500    -12.716680777000    -15.975890685900
     172   58  1  -0.84760    -24.905111539400    -13.152355022400     48.194465847300
     173   58  2   0.42380    -24.049066569900    -12.806723179200     48.578816779727
     174   58  2   0.42380    -25.571288419600    -12.408409338800     48.141995054000
     175   59  1  -0.84760      6.474346584390     21.002844859900     26.801186247500
     176   59  2   0.42380      5.796404460230     21.605767984800     26.380617368700
     177   59  2   0.42380      7.014359581170     21.520268735700     27.465007380100
     178   60  1  -0.84760    -19.826536169300     15.675174854000     41.727509804400
     179   60  2   0.42380    -20.284958776000     16.244459603700     41.045041059800
     180   60  2   0.42380    -20.410096492100     15.587609443200     42.534844709200
     181   61  1  -0.84760    -34.952183957600     -3.468951239040     -3.284372548190
     182   61  2   0.42380    -34.596377341000     -2.649608537890     -2.834840358400
     183   61  2   0.42380    -35.102385217500     -4.184711179430     -2.602370136710
     184   62  1  -0.84760     -2.053956945010     40.095696061700     34.530177635700
     185   62  2   0.42380     -1.757679684890     39.802633752700     33.621148335800
     186   62  2   0.42380     -1.876410724330     41.073728007400     34.639406078700
     187   63  1  -0.84760    -21.746553400600    -46.940423012400     -7.267582726910
     188   63  2   0.42380    -21.871392075500    -47.355017784900     -6.366180219760
     189   63  2   0.42380    -20.841327895300    -47.176795265500     -7.620704437680
     190   64  1  -0.84760    -27.166632444600    -46.292169767400      9.185495761530
     191   64  2   0.42380    -26.982686981500    -45.310056470100      9.145277134660
     192   64  2   0.42380    -26.568052026000    -46.715823628100      9.865362578380
     193   65  1  -0.84760    -19.665499932200     38.250773049000    -39.896989328400
     194   65  2   0.42380    -19.231420262400     38.057652859700    -40.776920821600
     195   65  2   0.42380    -20.659318945900     38.248605275900    -40.007980629200
     196   66  1  -0.84760    -27.468053625700     21.011520021100    -34.577686032700
     197   66  2   0.42380    -26.589686968000     21.272042579900    -34.176936720800
     198   66  2   0.42380    -28.116108508200     21.766824389500    -34.480012186200
     199   67  1  -0.84760    -23.965953771900     -8.797707241390    -29.901885632100
     200   67  2   0.42380    -23.320475219100     -9.263029877690    -29.296218824400
     201   67  2   0.42380    -24.478271697200     -9.476624001130    -30.427815643500
     202   68  1  -0.84760     -2.162790653650    -47.685512591500     39.641087008500
     203   68  2   0.42380     -2.350247988610    -47.451486188100     38.687099906900
     204   68  2   0.42380     -1.177120414770    -47.648955296500     39.805761670700
     205   69  1  -0.84760    -43.560236199800    -42.726051501600     22.358017736000
     206   69  2   0.42380    -43.932781371900    -43.547289278500     22.790196644000
     207   69  2   0.42380    -43.369896313000    -42.913642676300     21.394389032200
     208   70  1  -0.84760    -29.065672355500     -8.276182722060     25.444970142100
     209   70  2   0.42380    -29.201027088100     -7.486059159480     26.042786043700
     210   70  2   0.42380    -29.930355880700     -8.509643673170     25.000202353700
     211   71  1  -0.84760     -6.741505247910    -38.772277205900     13.128962681100
     212   71  2   0.42380     -6.483864777300    -37.819713669900     12.966962379600
     213   71  2   0.42380     -7.462736833970    -38.809482223200     13.820656823000
     214   72  1  -0.84760     32.238135924000    -32.987614052700      6.142127148380
     215   72  2   0.42380     31.460002567500    -32.360525579100      6.106510779800
     216   72  2   0.42380     32.428501967800    -33.335068939700      5.223957299760
     217   73  1  -0.84760     27.363807935600      4.614000591830     43.234769120900
     218   73  2   0.42380     28.306711791300      4.843549825370     43.476097669500
     219   73  2   0.42380     27.024305155500      5.267625375660     42.558372414600
     220   74  1  -0.84760     -3.650712561150    -16.075911211600     13.211884064900
     221   74  2   0.42380     -4.213168436330    -15.390461356600     13.674271223900
     222   74  2   0.42380     -3.182931781320    -15.654317245000     12.435070271700
     223   75  1  -0.84760     41.424514159000     13.103359264500    -39.890763228100
     224   75  2   0.42380     40.826177093200     13.874189150300    -39.672099004200
     225   75  2   0.42380     41.833778581700     12.750001678800    -39.049549195300
     226   76  1  -0.84760     -4.870168987990    -21.983950927500    -29.778513094000
     227   76  2   0.42380     -5.830047178370    -22.073428679900    -29.512754573000
     228   76  2   0.42380     -4.492400933110    -21.145394963700    -29.385938015400
     229   77  1  -0.84760     29.870771141000    -24.534915122000     11.063703477600
     230   77  2   0.42380     30.029111684300    -24.754944123300     10.101146720400
     231   77  2   0.42380     30.300483336600    -25.230360182400     11.639640624200
     232   78  1  -0.84760     -4.550507105130     15.906669826600    -26.926753585200
     233   78  2   0.42380     -4.311494002070     16.175741507200    -25.993762070100
     234   78  2   0.42380     -4.679685021450     16.724931615700    -27.486897058400
     235   79  1  -0.84760     26.058348328200      8.387214932810    -44.937089434100
     236   79  2   0.42380     25.148564697400      8.020879208440    -45.132260851700
     237   79  2   0.42380     26.618929348200      7.677535467260    -44.510353009300
     238   80  1  -0.84760     -0.704994984999    -38.141017103700    -15.945254263300
     239   80  2   0.42380     -0.888559480814    -37.417338339400    -15.279977537500
     240   80  2   0.42380     -0.044530378710    -38.786578151900    -15.561799654700
     241   81  1  -0.84760    -47.358712048100    -28.563310307000     41.930147675400
     242   81  2   0.42380    -48.256636202427    -28.306955528100     41.572356618500
     243   81  2   0.42380    -46.776755088200    -28.874010194900     41.178621444000
     244   82  1  -0.84760     16.987456996200    -15.735414893100    -16.591311078000
     245   82  2   0.42380     17.170128961800    -15.341629143600    -15.690442754400
     246   82  2   0.42380     16.668990707200    -16.677366734900    -16.484981634600
     247   83  1  -0.84760     38.686958592900     16.328062755800     35.585788164400
     248   83  2   0.42380     39.641729321100     16.449688625900     35.857118229800
     249   83  2   0.42380     38.608760009300     15.527821901100     34.991229877900
     250   84  1  -0.84760     39.909187005500    -46.612473822600     46.838200927400
     251   84  2   0.42380     39.864093999300    -47.536242883000     47.218486798800
     252   84  2   0.42380     39.496783048500    -45.966910543500     47.480984739300
     253   85  1  -0.84760     25.544431570700    -16.191138438400    -22.297404162300
     254   85  2   0.42380     25.179025932700    -15.402017846000    -21.803676088800
     255   85  2   0.42380     26.315732819000    -16.574329557600    -21.789212318100
     256   86  1  -0.84760    -32.358226000100     12.881715397800      7.279291509990
     257   86  2   0.42380    -32.192651184700     12.571696700000      8.215493084180
     258   86  2   0.42380    -33.340633800800     13.002780932800      7.137101322080
     259   87  1  -0.84760     16.392173442000     33.468147461400     -9.819979186250
     260   87  2   0.42380     17.037134196000     32.838140416700    -10.252549122200
     261   87  2   0.42380     16.259867902600     34.265791971900    -10.408416505800
     262   88  1  -0.84760     39.097548274400    -28.280126725900      0.278882231758
     263   88  2   0.42380     38.356371453000    -28.493677003600      0.915320130008
     264   88  2   0.42380     39.950588178300    -28.163845163700      0.787607619944
     265   89  1  -0.84760     18.130141775500     26.689508378400    -15.191935990900
     266   89  2   0.42380     18.048255481600     26.494495624700    -14.214559573800
     267   89  2   0.42380     18.493151823200     27.612678042300    -15.318353857800
     268   90  1  -0.84760     19.965797821200     19.082357798800     26.624256834400
     269   90  2   0.42380     19.654814059400     19.344328294800     25.710659243000
     270   90  2   0.42380     19.218672067300     19.202777724600     27.277940358200
     271   91  1  -0.84760     -7.404694713460     43.542024395500    -26.113705913200
     272   91  2   0.42380     -6.545587458030     43.659794290000    -25.615644696500
     273   91  2   0.42380     -7.817204953940     42.665900527900    -25.864221905400
     274   92  1  -0.84760      1.572919534600      9.554345017580    -21.511955063000
     275   92  2   0.42380      1.768457123290     10.325888299700    -22.117335947400
     276   92  2   0.42380      2.429100460420      9.201481904020    -21.134540376800
     277   93  1  -0.84760    -48.047014782800     43.753755371600     47.022247958200
     278   93  2   0.42380    -48.775413604527     43.068822098200     47.039613655700
     279   93  2   0.42380    -48.345712006227     44.544496549100     46.487918135900
     280   94  1  -0.84760     27.523555294100     39.267065877600     45.565665208600
     281   94  2   0.42380     27.245767343100     38.575894105800     44.898495487900
     282   94  2   0.42380     27.049324953400     39.104663167200     46.430957612200
     283   95  1  -0.84760    -22.203975920500    -17.349347623700    -39.674351375000
     284   95  2   0.42380    -21.526719371800    -18.084775137000    -39.696029476300
     285   95  2   0.42380    -21.771331608100    -16.489692505400    -39.946034971200
     286   96  1  -0.84760     -1.398730801580    -42.695867380900     13.014308569800
     287   96  2   0.42380     -0.964075779323    -41.828151597000     12.773177215600
     288   96  2   0.42380     -0.920922927330    -43.446261126500     12.557571378500
     289   97  1  -0.84760     45.749099739500     10.389995432800    -43.595641893900
     290   97  2   0.42380     45.143892452200     10.883814049300    -44.220035450300
     291   97  2   0.42380     45.383205987900      9.473892974470    -43.431696633900
     292   98  1  -0.84760    -18.744793581600    -16.896887665500     13.756150923300
     293   98  2   0.42380    -18.571611723500    -16.424080549900     12.892170903000
     294   98  2   0.42380    -19.669637464300    -16.685411297300     14.072286239800
     295   99  1  -0.84760    -42.139082881200      2.640329885930     -9.145953567080
     296   99  2   0.42380    -42.829144975800      2.088594373540     -8.677549649530
     297   99  2   0.42380    -41.365949592900      2.060080417350     -9.402030650510
     298  100  1  -0.84760    -37.090443086400    -16.364108347800     14.541724052600
     299  100  2   0.42380    -37.110753798200    -16.396233170100     15.541001526900
     300  100  2   0.42380    -36.634935728600    -17.182393853800     14.191121888200
     301  101  1  -0.84760     -9.887799609470    -27.592688135800     -0.829010420638
     302  101  2   0.42380    -10.539242090800    -28.280782352600     -1.148618058730
     303  101  2   0.42380    -10.005554576100    -26.751596051300     -1.356928854960
     304  102  1  -0.84760    -45.289782489500    -36.256544658500     -7.649049149910
     305  102  2   0.42380    -45.567570951900    -37.116622281900     -8.076951068470
     306  102  2   0.42380    -45.814264365900    -35.502702532900     -8.044827889980
     307  103  1  -0.84760    -40.943915621100    -38.381445797800     25.301374500400
     308  103  2   0.42380    -41.037441405700    -37.418632798900     25.047910387100
     309  103  2   0.42380    -40.513336659200    -38.883291693000     24.551206216000
     310  104  1  -0.84760     -0.560604569706     36.693662184100     16.114345108800
     311  104  2   0.42380      0.014371350789     37.463031525000     15.836004475500
     312  104  2   0.42380     -1.465161593030     36.785842698600     15.698076752700
     313  105  1  -0.84760    -35.299383630000     34.830591384900    -28.520490502100
     314  105  2   0.42380    -36.055330526700     34.430655318500    -29.038752436200
     315  105  2   0.42380    -34.519575990700     34.204674056500    -28.531784025400
     316  106  1  -0.84760     45.923786763100    -41.288059765600    -18.828572927100
     317  106  2   0.42380     46.000628077100    -40.467432804300    -19.394847421400
     318  106  2   0.42380     45.739521590400    -42.079316214100    -19.411633454700
     319  107  1  -0.84760    -30.710984868500    -34.071356523100     44.299550881900
     320  107  2   0.42380    -31.490458935500    -34.540471024800     43.884398183200
     321  107  2   0.42380    -29.936929332200    -34.701474790800     44.361105697400
     322  108  1  -0.84760     38.670081980800     23.812559797200    -36.211408902200
     323  108  2   0.42380     37.754720342300     23.414859024200    -36.148582426900
     324  108  2   0.42380     38.888310530100     23.996989503500    -37.169720951500
     325  109  1  -0.84760     38.538942257900    -23.617058195200     28.899979432400
     326  109  2   0.42380     39.219745610900    -23.642107788500     28.167941651700
     327  109  2   0.42380     37.716541508000    -24.104816602500     28.607150569900
     328  110  1  -0.84760     37.371135829300     40.216220542600     20.087300024100
     329  110  2   0.42380     36.699025719300     40.314034296400     19.353337852300
     330  110  2   0.42380     38.288664041400     40.159616653200     19.693678404200
     331  111  1  -0.84760    -14.931950410900    -45.767962857100    -46.788973649900
     332  111  2   0.42380    -15.857946752000    -45.897323441300    -46.434295464000
     333  111  2   0.42380    -14.771128949200    -44.794864660700    -46.953947459000
     334  112  1  -0.84760     -8.405479478000     20.444550507700    -13.553728519800
     335  112  2   0.42380     -7.599787069000     20.295479965200    -12.980459197900
     336  112  2   0.42380     -8.744773567550     21.375139641600    -13.416311691800
     337  113  1  -0.84760     33.545970751400     42.380455685300    -29.759841501000
     338  113  2   0.42380     33.945533619100     42.184707762900    -30.655404042400
     339  113  2   0.42380     32.567002281800     42.556513867500    -29.862915513800
     340  114  1  -0.84760     27.500510310700     43.415857591600    -42.603887582300