LAMMPS Atom File

         4500 atoms
         3000 bonds
         1500 angles
           0 dihedrals
           0 impropers

           2 atom types
           1 bond types
           1 angle types

         0.0  36.8055279837 xlo xhi
         0.0  36.8055279837 ylo yhi
         0.0  36.8055279837 zlo zhi

Masses

         1   15.9994
         2   1.00794

Atoms

       1    1  1  -0.84760    -16.342422482700      3.659616189890    -17.483997821100
       2    1  2   0.42380    -15.434979015700      4.068129220690    -17.385694932700
       3    1  2   0.42380    -16.248741251200      2.692488523780    -17.720404048400
       4    2  1  -0.84760    -15.365384539400     -8.872675171870    -11.610842200700
       5    2  2   0.42380    -16.121714324800     -8.724726446390    -10.973600935300
       6    2  2   0.42380    -14.585901904800     -9.260299347740    -11.118750419900
       7    3  1  -0.84760     -8.920006907410     14.351536603600     -9.045562020940
       8    3  2   0.42380     -8.248708534730     13.727426664200     -9.445368572210
       9    3  2   0.42380     -8.465727797670     14.953581539700     -8.388924841540
      10    4  1  -0.84760     17.335077412100    -10.584580342900      7.159833779980
      11    4  2   0.42380     16.814198711900    -11.074339131400      7.858991636900
      12    4  2   0.42380     17.418333982300    -11.157025440700      6.344128592110
      13    5  1  -0.84760      0.337516846980     10.101216463000     -9.896730336090
      14    5  2   0.42380      0.275632285479     10.490197656100    -10.815895137700
      15    5  2   0.42380     -0.155191623557     10.686854886300     -9.253095346180
      16    6  1  -0.84760     -6.449505584950    -11.159645948600      3.511245072260
      17    6  2   0.42380     -6.774183377040    -10.312035884900      3.091552909700
      18    6  2   0.42380     -5.449547400440    -11.167799801800      3.515385592760
      19    7  1  -0.84760    -12.547747758600     -3.707853117870     18.147662766300
      20    7  2   0.42380    -13.019830607500     -2.859641399710     17.907507264800
      21    7  2   0.42380    -13.220909997300     -4.428498897440     18.313561110900
      22    8  1  -0.84760     17.024675893900     17.463478586500    -13.028254623400
      23    8  2   0.42380     16.561389591400     17.460547524000    -12.142050803300
      24    8  2   0.42380     16.356109510800     17.303108580600    -13.754409188600
      25    9  1  -0.84760    -11.449762899100     -2.985613828220     15.438949566300
      26    9  2   0.42380    -11.844930646000     -2.591276610860     14.609286616100
      27    9  2   0.42380    -12.129182497700     -3.565309807940     15.888773509800
      28   10  1  -0.84760     -8.462068644860    -15.556483223600      2.575580287820
      29   10  2   0.42380     -8.734853940640    -16.254082505400      3.238108343390
      30   10  2   0.42380     -9.142746040490    -15.506656645300      1.844693432570
      31   11  1  -0.84760     -1.477279971550      7.249875552750     10.690050951000
      32   11  2   0.42380     -0.615457262093      6.859751539130     10.365913832700
      33   11  2   0.42380     -2.105673219330      7.356311480110      9.919471091740
      34   12  1  -0.84760    -12.378732578800     10.796919565400     13.637429384800
      35   12  2   0.42380    -12.755348823600     10.171082570500     12.954429926500
      36   12  2   0.42380    -11.793185728300     11.470065674000     13.185755606100
      37   13  1  -0.84760    -14.713107556300     12.366664550100      8.641918766350
      38   13  2   0.42380    -14.750767057500     11.529786931200      9.188011810620
      39   13  2   0.42380    -14.061202376700     13.003863559000      9.053011286260
      40   14  1  -0.84760      5.939098155060      2.931810307490     11.888091298500
      41   14  2   0.42380      5.843804935600      3.764336649030     11.342363259100
      42   14  2   0.42380      5.874620426940      2.132464495840     11.290689510800
      43   15  1  -0.84760     -8.180806407730    -15.008687426300     -2.368239391690
      44   15  2   0.42380     -8.885921898260    -15.054978971200     -1.660659546090
      45   15  2   0.42380     -7.553121293610    -15.780181208000     -2.264274290040
      46   16  1  -0.84760     16.200436186000      8.419027493690     -1.744237893210
      47   16  2   0.42380     16.607968507400      8.593609211370     -2.640585276130
      48   16  2   0.42380     15.558203946200      9.152469108970     -1.521524743350
      49   17  1  -0.84760     -0.451856408093      3.010215681360     14.211526212800
      50   17  2   0.42380     -0.498568681588      2.011809646100     14.179850476700
      51   17  2   0.42380     -0.959724429335      3.342608983580     15.006249287700
      52   18  1  -0.84760     -7.625556658590      8.096254251190      3.782141940180
      53   18  2   0.42380     -7.668355231650      8.837625102260      3.112412484860
      54   18  2   0.42380     -7.407993839290      8.472723465030      4.682662540000
      55   19  1  -0.84760      8.207589066440     -1.221054265000     13.101527892600
      56   19  2   0.42380      8.041463682750     -0.865977201682     12.181569939200
      57   19  2   0.42380      7.685974907270     -0.684713016168     13.765046342800
      58   20  1  -0.84760     -1.647383121310     -1.272662050290     -4.498621261440
      59   20  2   0.42380     -0.897398505768     -1.112261202830     -3.856908985900
      60   20  2   0.42380     -1.287157974660     -1.305131388710     -5.430921420070
      61   21  1  -0.84760     -8.413367565270     15.702214160100     12.331498018700
      62   21  2   0.42380     -7.582598038310     16.253285558000     12.409870893300
      63   21  2   0.42380     -8.255021340260     14.949540746400     11.692429004200
      64   22  1  -0.84760      8.151355909220     -7.577595951760    -14.584782467600
      65   22  2   0.42380      8.519441228130     -7.487157863590    -13.659399222600
      66   22  2   0.42380      7.534440906720     -8.363709039930    -14.622757358000
      67   23  1  -0.84760    -17.653088558700     11.001621726900    -13.343668765000
      68   23  2   0.42380    -18.414348276674     10.578336630600    -13.834905336300
      69   23  2   0.42380    -17.003034763100     10.295155756100    -13.063783261700
      70   24  1  -0.84760    -12.891828617200    -13.606829103300    -15.549056993600
      71   24  2   0.42380    -12.015507743300    -13.939982289200    -15.201104869500
      72   24  2   0.42380    -13.507391895800    -14.380770239900    -15.697707480500
      73   25  1  -0.84760     13.236798299200     -8.162578298930      7.287201890260
      74   25  2   0.42380     12.741275192000     -7.333635782350      7.027757957080
      75   25  2   0.42380     13.499328917900     -8.106249418540      8.250480007680
      76   26  1  -0.84760     -4.269795084850     -5.854083837690    -10.580884598600
      77   26  2   0.42380     -4.838492507860     -6.357685289590     -9.930524068840
      78   26  2   0.42380     -4.463583834850     -6.171969887130    -11.508997943000
      79   27  1  -0.84760      8.523193726180      7.358620326270      6.149694801570
      80   27  2   0.42380      8.268514394840      7.171705559330      7.098484192370
      81   27  2   0.42380      9.291859278940      6.774238957610      5.889595428320
      82   28  1  -0.84760      6.398174071600      0.291969424369      0.725643541301
      83   28  2   0.42380      5.461449660120      0.131295292284      0.414627142645
      84   28  2   0.42380      6.382329076430      0.656786657986      1.656587858750
      85   29  1  -0.84760     -8.817889990040      5.337636221570     -3.442309934030
      86   29  2   0.42380     -9.262223208340      4.442748714900     -3.484075248920
      87   29  2   0.42380     -9.409819161670      5.981371757670     -2.957310536800
      88   30  1  -0.84760      0.933762450415     14.551065126000     -0.522340990473
      89   30  2   0.42380      0.851473459519     13.641450515800     -0.929563022002
      90   30  2   0.42380      0.664664776830     15.242154039100     -1.193148381830
      91   31  1  -0.84760     -4.535326988200    -17.554147220600    -14.952465267600
      92   31  2   0.42380     -4.678803536780    -16.567737783800    -15.032533383000
      93   31  2   0.42380     -4.199193343780    -17.768723329800    -14.035420412400
      94   32  1  -0.84760     12.025560573800     -0.470478359586      4.332363751930
      95   32  2   0.42380     11.902588189100      0.368906282790      3.802919501090
      96   32  2   0.42380     12.775203982200     -1.004419215830      3.941285853990
      97   33  1  -0.84760      3.936273700610     17.130970243300      6.539522455350
      98   33  2   0.42380      3.109914440320     17.496362680200      6.111014882480
      99   33  2   0.42380      4.604109722530     17.866061659000      6.656294277740
     100   34  1  -0.84760    -13.525894253000     -9.215843786940     -8.251656327030
     101   34  2   0.42380    -13.173441194300     -9.982194503390     -8.788762853560
     102   34  2   0.42380    -12.991959377200     -8.394534824320     -8.452567094150
     103   35  1  -0.84760     -6.157905118390     -7.380164654110     -9.494257898190
     104   35  2   0.42380     -6.221171029630     -7.359440279380     -8.496476396670
     105   35  2   0.42380     -6.816129662770     -6.735739960500     -9.883433004580
     106   36  1  -0.84760    -13.550475250000      9.523375388050     10.821769809300
     107   36  2   0.42380    -12.571219533400      9.339243783010     10.737189707300
     108   36  2   0.42380    -14.008765376900      8.720824581440     11.203715305900
     109   37  1  -0.84760      7.378129650770    -15.698108755800    -11.471438092100
     110   37  2   0.42380      7.945372389520    -14.908203009000    -11.704428620900
     111   37  2   0.42380      6.476196232380    -15.596169561500    -11.891109999100
     112   38  1  -0.84760      8.218112758540      1.642236380800     -2.139751984970
     113   38  2   0.42380      8.975945058330      1.409912229010     -2.749436898590
     114   38  2   0.42380      7.727287777780      2.433410911550     -2.504626895260
     115   39  1  -0.84760    -17.987856350200    -18.183628799900    -11.269993879700
     116   39  2   0.42380    -18.536184448374    -18.872087217974    -11.744716223200
     117   39  2   0.42380    -18.360302733000    -17.274447772900    -11.456202236000
     118   40  1  -0.84760      4.893679626440     14.576548020000    -17.597292422500
     119   40  2   0.42380      5.034588236560     15.310586914200    -18.261620402900
     120   40  2   0.42380      5.591373045890     14.634752801200    -16.883264344700
     121   41  1  -0.84760      6.173919002650     13.371404894600     16.176184982100
     122   41  2   0.42380      5.242988703490     13.047397212000     16.344671775900
     123   41  2   0.42380      6.239464110530     13.726972936800     15.243835688000
     124   42  1  -0.84760    -10.109124425900     -9.101045335790     13.540124500800
     125   42  2   0.42380     -9.860672112880    -10.047688997200     13.745398041500
     126   42  2   0.42380    -10.422559884700     -9.036651016370     12.592700844300
     127   43  1  -0.84760     15.206994838500    -15.661555960100    -11.513767982800
     128   43  2   0.42380     15.500576261500    -16.617464497500    -11.506781134400
     129   43  2   0.42380     14.831759791400    -15.421567833800    -10.618444377300
     130   44  1  -0.84760    -11.577474614000      3.084856801790     -7.679623450570
     131   44  2   0.42380    -10.827233513500      2.825718902380     -8.287888064180
     132   44  2   0.42380    -11.209149232000      3.336992962310     -6.784769401290
     133   45  1  -0.84760     -6.320488046290      0.060993678788    -10.650364826700
     134   45  2   0.42380     -6.663523462980      0.999743013950    -10.617556464600
     135   45  2   0.42380     -7.080267781970     -0.576219668911    -10.521159940000
     136   46  1  -0.84760      2.947252674920      6.766649534490     11.311466022500
     137   46  2   0.42380      3.168677246740      7.527646100930     10.701666559700
     138   46  2   0.42380      2.237903023460      7.051638823220     11.956139720900
     139   47  1  -0.84760     -2.439511824430      9.345163606450      5.612112814630
     140   47  2   0.42380     -2.471139256060     10.095913824200      4.952284188290
     141   47  2   0.42380     -2.513440659030      9.712823754050      6.539129828110
     142   48  1  -0.84760      7.620808667420     -8.585849818900      9.225589004950
     143   48  2   0.42380      7.425486747540     -9.485908364930      8.836045732220
     144   48  2   0.42380      7.578942474560     -7.894330938340      8.504444872530
     145   49  1  -0.84760      9.780431851320    -10.796153254600    -17.246705409300
     146   49  2   0.42380      8.822242405000    -10.536610873000    -17.367165930300
     147   49  2   0.42380     10.100866958100    -10.482533332400    -16.352857610900
     148   50  1  -0.84760     -4.222729832360      0.186565643773    -15.759703389600
     149   50  2   0.42380     -4.656817767480     -0.690992383187    -15.556087147900
     150   50  2   0.42380     -3.597930624600      0.429495615509    -15.017671733400
     151   51  1  -0.84760    -11.321812627800      5.314641411580     -5.311425351560
     152   51  2   0.42380    -10.770731432600      4.935714781730     -4.567971166350
     153   51  2   0.42380    -11.298532428300      6.313424571310     -5.267948551500
     154   52  1  -0.84760      7.231219391940     -1.424152296470     -4.004079503170
     155   52  2   0.42380      7.669156711380     -0.595259893793     -3.656015875330
     156   52  2   0.42380      7.721970616480     -2.227353478350     -3.666394595230
     157   53  1  -0.84760    -10.773475752700     -4.367478460370      3.566996348540
     158   53  2   0.42380    -11.328792394000     -3.713994335590      4.081371626560
     159   53  2   0.42380    -10.258842674500     -3.883250653430      2.859411565090
     160   54  1  -0.84760     -5.472379544510     -3.270884264320      1.652127907510
     161   54  2   0.42380     -5.665038707110     -2.770740914790      0.807889151599
     162   54  2   0.42380     -4.554821312590     -3.038855166890      1.975004647110
     163   55  1  -0.84760     16.597508321800     -4.228650460460     -4.702941233380
     164   55  2   0.42380     17.190838095300     -3.758556067300     -4.049511021800
     165   55  2   0.42380     16.446353663000     -5.169294270330     -4.399063804070
     166   56  1  -0.84760     -7.757059147380     -3.574019251370     16.720702702700
     167   56  2   0.42380     -6.882098584430     -3.423252893420     17.180826076000
     168   56  2   0.42380     -8.503744458250     -3.439747284200     17.372187227000
     169   57  1  -0.84760      2.413686686030     10.890971310000     11.006534200600
     170   57  2   0.42380      2.584604360080     11.368409889500     10.144652798400
     171   57  2   0.42380      1.497559717360     10.490436237700     10.989710611000
     172   58  1  -0.84760     -7.053680175310      4.237535742330     15.295970185700
     173   58  2   0.42380     -6.498682367990      4.761598287770     15.941985574300
     174   58  2   0.42380     -7.613306861930      4.863580541290     14.752936226100
     175   59  1  -0.84760    -12.705344345600      0.312850753081     -3.259658019380
     176   59  2   0.42380    -12.735734216200      1.048331023240     -3.936522280490
     177   59  2   0.42380    -13.207641598900     -0.479575646117     -3.605718521480
     178   60  1  -0.84760     -2.368768490470     13.444834800400     11.159223915600
     179   60  2   0.42380     -2.092715604000     12.526640511200     11.443326099900
     180   60  2   0.42380     -2.029723725540     14.114289981400     11.820191697000
     181   61  1  -0.84760    -10.707803422600    -17.325512235000     -1.504054896280
     182   61  2   0.42380    -10.378578037800    -17.723858086900     -2.360168923880
     183   61  2   0.42380    -10.033531165800    -17.482395222700     -0.782428502741
     184   62  1  -0.84760     -9.609873423330    -17.110219757800      4.422531685590
     185   62  2   0.42380     -9.850018501450    -17.301985104100      5.374138954060
     186   62  2   0.42380    -10.422320508600    -17.207413350200      3.847655055960
     187   63  1  -0.84760     -5.753313681360     13.209527747700    -16.702209266800
     188   63  2   0.42380     -5.824467420520     12.990477111000    -17.675324863200
     189   63  2   0.42380     -5.123462691160     13.976303711300    -16.578345018900
     190   64  1  -0.84760    -10.796489956600      8.848370311740    -13.383486748000
     191   64  2   0.42380    -10.211167402300      8.369154343420    -14.037512407400
     192   64  2   0.42380    -10.734580853300      8.401511899000    -12.491026764700
     193   65  1  -0.84760    -12.847209908500     -1.240976233700     -9.866127095420
     194   65  2   0.42380    -12.134310466300     -0.939449683494    -10.499259091900
     195   65  2   0.42380    -13.441416915600     -0.468811497489     -9.641005677500
     196   66  1  -0.84760     -0.463762705695    -18.382280012000     14.668917431600
     197   66  2   0.42380     -1.131678369260    -17.662158839500     14.480996801400
     198   66  2   0.42380      0.178849543600    -18.066893061300     15.367187127700
     199   67  1  -0.84760     18.275387616500    -15.684608246600      9.656714270490
     200   67  2   0.42380     18.547791161674    -16.563311954600      9.264698834300
     201   67  2   0.42380     18.651273819873    -15.600462195800     10.579551744900
     202   68  1  -0.84760    -10.754981303000     -4.629918595680     12.956925967900
     203   68  2   0.42380    -11.600225205600     -5.154143487390     13.060613035600
     204   68  2   0.42380    -10.627753649600     -4.041327457100     13.755282777700
     205   69  1  -0.84760     -2.827490092810    -13.215011098800      2.223845379260
     206   69  2   0.42380     -1.830053407810    -13.286536938100      2.221817145390
     207   69  2   0.42380     -3.136839728990    -12.844060950700      1.348231999830
     208   70  1  -0.84760      7.166001756030     -0.030848215076     15.190185618500
     209   70  2   0.42380      7.111620367840      0.952372110690     15.364313317700
     210   70  2   0.42380      8.066162871870     -0.368737562745     15.465032401800
     211   71  1  -0.84760      1.556353019920     -2.836854103370      8.438051029610
     212   71  2   0.42380      1.212487218030     -1.935737194030      8.173958951000
     213   71  2   0.42380      0.818708642967     -3.364918477890      8.858798922670
     214   72  1  -0.84760     17.633357196700      3.913096087280    -15.885019679000
     215   72  2   0.42380     17.280824706100      4.766874917270    -15.501897567300
     216   72  2   0.42380     17.866727425800      4.050995310430    -16.847579879900
     217   73  1  -0.84760     -0.502179695460     -7.483515150870    -16.166398707300
     218   73  2   0.42380     -1.390231571620     -7.710196395530    -15.766424359900
     219   73  2   0.42380     -0.511734958538     -6.535166187680    -16.483483776200
     220   74  1  -0.84760     10.091729764700    -10.087041415800      3.775214225050
     221   74  2   0.42380     10.811040811300    -10.591527904500      3.297631770600
     222   74  2   0.42380     10.167310519900     -9.113676484050      3.558769638330
     223   75  1  -0.84760     -2.261893134950      4.463918815760    -10.146755612800
     224   75  2   0.42380     -2.857204466330      4.988524359150     -9.538156037930
     225   75  2   0.42380     -1.567140854680      3.989647148310     -9.606028644290
     226   76  1  -0.84760      9.726063139910      5.756208253140    -16.011361006800
     227   76  2   0.42380      9.992726763860      5.603046999750    -15.059819025600
     228   76  2   0.42380     10.505798520800      5.572119169460    -16.609795585600
     229   77  1  -0.84760      0.198238346951    -14.866044424200     -6.705431283660
     230   77  2   0.42380      0.705937763374    -15.634405218200     -7.095127309840
     231   77  2   0.42380      0.802489614272    -14.333649225900     -6.112611109620
     232   78  1  -0.84760     17.793393629200    -11.002113000100     16.610201759500
     233   78  2   0.42380     17.098510271700    -11.513413084300     17.115878873200
     234   78  2   0.42380     18.531783397773    -11.620286754800     16.340680408400
     235   79  1  -0.84760      5.916302130570     -5.589594413880     -5.986913120980
     236   79  2   0.42380      5.222182960370     -5.080890663030     -6.496245106460
     237   79  2   0.42380      5.542480224620     -6.473485920950     -5.705856211500
     238   80  1  -0.84760     14.803059980200      4.033013748010     14.981077336900
     239   80  2   0.42380     14.047249653600      4.616799765110     15.277631946400
     240   80  2   0.42380     15.420968445200      3.871197266760     15.750495659600
     241   81  1  -0.84760     14.863187276300     17.565919363500    -17.739920966600
     242   81  2   0.42380     14.873874915100     16.733948511700    -18.294637359100
     243   81  2   0.42380     15.776578762400     17.972922223500    -17.731879506400
     244   82  1  -0.84760      9.090447841540     -6.434064734900     -8.477710651790
     245   82  2   0.42380      9.996668094970     -6.038134373560     -8.329373194450
     246   82  2   0.42380      8.483704062650     -5.741201999520     -8.867329974580
     247   83  1  -0.84760     -9.683161763370      5.752846476390      2.483016683290
     248   83  2   0.42380    -10.482674628500      6.278423915480      2.773787269770
     249   83  2   0.42380     -8.867710412110      6.329125105050      2.537257220580
     250   84  1  -0.84760      9.101160979920     13.647976596900     -1.845064154250
     251   84  2   0.42380      9.023985415370     14.465434944500     -2.415858147140
     252   84  2   0.42380      9.864332433050     13.757022065000     -1.208135257880
     253   85  1  -0.84760     16.214452715700    -11.010946061000      0.299250385560
     254   85  2   0.42380     15.696888337200    -10.972784982700     -0.555542481904
     255   85  2   0.42380     16.953689941200    -11.678686130300      0.211777394691
     256   86  1  -0.84760      9.751645784230     11.298626637900     -3.420463685870
     257   86  2   0.42380     10.248344470800     11.943251143000     -2.839301348790
     258   86  2   0.42380      8.837037484800     11.147994465100     -3.045228283580
     259   87  1  -0.84760      5.960375996640     10.625946344900      8.879924895870
     260   87  2   0.42380      5.306121920520     11.342526193200      9.121720108760
     261   87  2   0.42380      6.667495127400     10.568609126100      9.584690799030
     262   88  1  -0.84760     -5.068722047700     17.347438747100     -9.756037010710
     263   88  2   0.42380     -5.549982588850     16.799173318700     -9.072082837140
     264   88  2   0.42380     -5.625029046010     17.410009269200    -10.584654807600
     265   89  1  -0.84760     -2.003872751900      3.325828468890     -7.152677215590
     266   89  2   0.42380     -1.143024027350      3.313598805200     -6.643963240200
     267   89  2   0.42380     -2.424739679300      2.419389083720     -7.117482465480
     268   90  1  -0.84760    -18.295133952100    -15.641445896700     17.489838761800
     269   90  2   0.42380    -18.326186865600    -15.776243368800     16.499452292700
     270   90  2   0.42380    -17.780010522000    -16.387511210400     17.911779989400
     271   91  1  -0.84760      6.304992120650    -16.273526971600     14.490385456600
     272   91  2   0.42380      6.479110584520    -17.199468236800     14.155250358400
     273   91  2   0.42380      6.426807678230    -16.249789546800     15.482654323700
     274   92  1  -0.84760    -16.750803395900     16.200479790100     -4.984031309000
     275   92  2   0.42380    -17.605881516300     16.718888584000     -4.993712758120
     276   92  2   0.42380    -16.952572965100     15.223442364700     -5.052492322170
     277   93  1  -0.84760     -7.227492656720     -9.277676017320    -17.199583870500
     278   93  2   0.42380     -7.385624507200     -8.575550254270    -16.505311783600
     279   93  2   0.42380     -6.264587284310     -9.268853537890    -17.469278897600
     280   94  1  -0.84760     -6.423052213830     -7.550392861160      5.632628709220
     281   94  2   0.42380     -5.603817307020     -7.250125861550      5.144065615630
     282   94  2   0.42380     -6.635262601690     -8.494131444820      5.379006476380
     283   95  1  -0.84760    -17.592744325700      0.153561574576     -1.296831973850
     284   95  2   0.42380    -17.582486959800      1.107974337690     -0.998518273093
     285   95  2   0.42380    -18.054853153100     -0.405800193820     -0.608667862818
     286   96  1  -0.84760    -13.831405146900     -3.662453141100      6.276085176520
     287   96  2   0.42380    -14.560569814400     -3.085844535070      5.907518489020
     288   96  2   0.42380    -13.144978923200     -3.087703323050      6.721598011500
     289   97  1  -0.84760     -4.470760519860    -12.080968368800      0.202551325329
     290   97  2   0.42380     -5.140565853330    -11.598607471300      0.767076594779
     291   97  2   0.42380     -4.852645271050    -12.956762836600     -0.092657222829
     292   98  1  -0.84760     17.458432261700    -15.149653370600     -1.488263981720
     293   98  2   0.42380     17.154627897700    -15.720851735500     -2.250783054500
     294   98  2   0.42380     17.131729051300    -15.540880228100     -0.627911403845
     295   99  1  -0.84760    -14.217779774400    -13.930642931300     10.775141849800
     296   99  2   0.42380    -14.092524021300    -13.366599733900      9.958951756860
     297   99  2   0.42380    -14.369877968900    -14.880935138900     10.503460309500
     298  100  1  -0.84760      0.243457462056      9.282673436720      9.930753531190
     299  100  2   0.42380     -0.356975360927      8.579472689290     10.311527918300
     300  100  2   0.42380      0.618190620400      8.965048700440      9.059725640170
     301  101  1  -0.84760    -13.896142603600      8.392412992620    -10.652467186800
     302  101  2   0.42380    -14.324652373800      8.798188832360     -9.845172107720
     303  101  2   0.42380    -14.419024042000      7.589769986430    -10.939450123700
     304  102  1  -0.84760     15.562882807600    -15.780540263000     -8.482481705360
     305  102  2   0.42380     16.491524513100    -15.511331284800     -8.227234553000
     306  102  2   0.42380     14.903609658100    -15.241776327800     -7.957989249310
     307  103  1  -0.84760     14.461104151900      8.840467443870    -14.296891248500
     308  103  2   0.42380     14.505932887900      9.639926924450    -13.697846239100
     309  103  2   0.42380     14.698113823200      9.109703695600    -15.230346258900
     310  104  1  -0.84760     14.493410502400     -7.985966069450     10.978280459900
     311  104  2   0.42380     13.596593277900     -8.018430745010     11.419488926000
     312  104  2   0.42380     14.798840535100     -8.916273094970     10.775200836600
     313  105  1  -0.84760     13.769242903600     16.293319673400      8.671425172650
     314  105  2   0.42380     14.547400211100     16.549207267900      9.245004063300
     315  105  2   0.42380     13.192828271300     15.640856103100      9.163398201600
     316  106  1  -0.84760     -5.982767252870    -17.627999555400    -17.902165491900
     317  106  2   0.42380     -5.231790471080    -18.065174292100    -17.407279522400
     318  106  2   0.42380     -6.042996835440    -16.666305719000    -17.634738188700
     319  107  1  -0.84760     -0.715765420075      7.437287716650     -3.741205211410
     320  107  2   0.42380     -1.110983655030      7.022572303480     -2.921562805940
     321  107  2   0.42380     -1.438763191510      7.877173311610     -4.273910463720
     322  108  1  -0.84760     14.471842494300     17.434247188000    -14.468817075700
     323  108  2   0.42380     13.755670243500     16.747600224100    -14.593770083800
     324  108  2   0.42380     14.245331802300     18.013412385900    -13.685707517600
     325  109  1  -0.84760     11.441610516400     17.248418235700    -16.281989745700
     326  109  2   0.42380     12.096904981000     17.002449225500    -16.996194485700
     327  109  2   0.42380     10.866556402000     18.001266077800    -16.602197322400
     328  110  1  -0.84760     -1.970401164440     16.807290893700     -3.819667759270
     329  110  2   0.42380     -1.189450012950     17.393047554200     -4.036472818310
     330  110  2   0.42380     -2.755216113170     17.078322873900     -4.376989176390
     331  111  1  -0.84760     16.982014696500     15.108668549800      4.315261114670
     332  111  2   0.42380     17.108999657800     14.232393258900      4.780036796230
     333  111  2   0.42380     16.311583381800     15.657006814300      4.815108091220
     334  112  1  -0.84760     -2.093089723510      0.207271947010      6.673083061710
     335  112  2   0.42380     -2.019301435880     -0.100480977207      7.621683834560
     336  112  2   0.42380     -1.764124719160     -0.513059953892      6.062424418560
     337  113  1  -0.84760      0.122236271126     -8.322432439530      1.211420474200
     338  113  2   0.42380     -0.810947431607     -8.310399590700      1.570618730740
     339  113  2   0.42380      0.119455538736     -7.998330557490      0.265402378403
     340  114  1  -0.84760     -8.355203176820     -8.287430654400     -4.279051385800