LAMMPS Atom File

         4500 atoms
         3000 bonds
         1500 angles
           0 dihedrals
           0 impropers

           2 atom types
           1 bond types
           1 angle types

         0.0  37.152770638 xlo xhi
         0.0  37.152770638 ylo yhi
         0.0  37.152770638 zlo zhi

Masses

         1   15.9994
         2   1.00794

Atoms

       1    1  1  -0.84760    -16.440451380800      3.713693150820    -17.592831185800
       2    1  2   0.42380    -17.337680110500      3.826512426820    -18.019741501600
       3    1  2   0.42380    -15.765138754400      3.481277333880    -18.292785287500
       4    2  1  -0.84760    -14.459009590000     -9.212649985790    -11.238718078500
       5    2  2   0.42380    -14.737061814800     -8.452728994120    -11.826261308100
       6    2  2   0.42380    -14.589971605400    -10.075982359600    -11.726064118600
       7    3  1  -0.84760     -9.047040199380     12.052308763100     -6.599170619460
       8    3  2   0.42380     -9.575005391000     11.559015886100     -7.290484509050
       9    3  2   0.42380     -8.904557716590     12.995617975900     -6.898947988830
      10    4  1  -0.84760    -14.783469365600    -12.797060538500      6.913822916060
      11    4  2   0.42380    -15.579501806600    -12.829193838900      6.309422548790
      12    4  2   0.42380    -13.975622715700    -13.116157304500      6.418281753160
      13    5  1  -0.84760     -0.276496368203      8.802668792180     -9.677304359140
      14    5  2   0.42380     -0.366088523834      7.813418411730     -9.561732172080
      15    5  2   0.42380     -0.951140196772      9.123011944040    -10.342312606900
      16    6  1  -0.84760     -5.126526860340    -12.501853998500      5.279082171770
      17    6  2   0.42380     -5.687839419610    -13.235062968000      4.895242598560
      18    6  2   0.42380     -4.888300152450    -12.724525613100      6.224420940520
      19    7  1  -0.84760    -12.683002387000     -3.765503555810     18.308821186600
      20    7  2   0.42380    -12.969758311400     -2.918635070430     17.860954232900
      21    7  2   0.42380    -13.477321888600     -4.358669438850     18.440010990000
      22    8  1  -0.84760     17.200275368900     17.612385153000    -13.145888155400
      23    8  2   0.42380     16.320138973500     18.023763439400    -12.908975025900
      24    8  2   0.42380     17.059317405100     16.891141796900    -13.824076089400
      25    9  1  -0.84760    -11.577600397400     -1.490023968090     14.141887786100
      26    9  2   0.42380    -12.200756492100     -2.160322833030     14.544846733400
      27    9  2   0.42380    -10.998450866300     -1.100623284660     14.858095108400
      28   10  1  -0.84760     -8.430994322700    -15.886859496100      1.195758337290
      29   10  2   0.42380     -7.709710065030    -15.472145722100      0.640995770691
      30   10  2   0.42380     -9.219897402260    -16.092932636100      0.616823287379
      31   11  1  -0.84760      0.369455139331      7.512257357170     10.636519083200
      32   11  2   0.42380     -0.102484892872      7.136569368700     11.434097381100
      33   11  2   0.42380      0.279114570208      6.879771962320      9.867233176060
      34   12  1  -0.84760    -12.970914647700      8.396725091080     13.839670224600
      35   12  2   0.42380    -12.051296318700      8.696105444710     14.093980139400
      36   12  2   0.42380    -13.151106976600      8.645311858940     12.887968935700
      37   13  1  -0.84760    -13.445212831600     13.067288549800      7.184842221860
      38   13  2   0.42380    -12.461317883600     13.172938150400      7.040658682020
      39   13  2   0.42380    -13.626998273800     12.935152037300      8.159262046720
      40   14  1  -0.84760      3.629828868520      0.528407685559     13.008586095400
      41   14  2   0.42380      3.793892775150     -0.442029415021     12.831569518900
      42   14  2   0.42380      4.336103619020      0.879102674910     13.623556827400
      43   15  1  -0.84760     -8.375634678450    -14.467777481900     -4.550550328800
      44   15  2   0.42380     -7.416097882760    -14.186208949300     -4.547669499600
      45   15  2   0.42380     -8.770616930720    -14.314787630500     -3.644689894860
      46   16  1  -0.84760    -16.966346956900     11.009893683500     -2.634091870360
      47   16  2   0.42380    -17.318708504200     11.801537152200     -2.134950649470
      48   16  2   0.42380    -17.406498966300     10.178726979500     -2.294344730750
      49   17  1  -0.84760      1.640689523080      1.994833567960     13.945620498000
      50   17  2   0.42380      1.825405050950      2.974339231960     13.865315903200
      51   17  2   0.42380      2.505225508690      1.492372226380     13.956114773000
      52   18  1  -0.84760     -7.289685125310      6.283100831520      5.199415298730
      53   18  2   0.42380     -7.341637937180      7.252490904240      5.439381530200
      54   18  2   0.42380     -6.923420016360      6.188028493140      4.273774374590
      55   19  1  -0.84760      1.466315989450      2.327754396000     -4.517331648850
      56   19  2   0.42380      0.917622754433      2.451385719030     -5.344163572410
      57   19  2   0.42380      1.353507831120      3.122197616410     -3.920561769450
      58   20  1  -0.84760     -8.061309626380     17.238373303900     12.024072077200
      59   20  2   0.42380     -8.195481759380     16.268540402300     11.820548167700
      60   20  2   0.42380     -7.788616690170     17.343639312600     12.980397142200
      61   21  1  -0.84760      7.856582504800     -7.988170948500    -15.576119936500
      62   21  2   0.42380      8.242083979390     -7.173627112100    -15.142637582000
      63   21  2   0.42380      7.057170546970     -7.730267769530    -16.118730728800
      64   22  1  -0.84760    -17.637787155800     12.602695934200    -14.951657640100
      65   22  2   0.42380    -18.225488589600     12.503435596900    -15.754623648200
      66   22  2   0.42380    -17.070604796000     11.785322090100    -14.850641950600
      67   23  1  -0.84760    -13.386520597800    -13.729111294300    -18.264262915300
      68   23  2   0.42380    -14.222210072200    -14.275383014900    -18.207603321400
      69   23  2   0.42380    -12.650403521000    -14.285104201200    -18.650272677980
      70   24  1  -0.84760     12.994445144000    -10.768299782200      7.662376632680
      71   24  2   0.42380     13.428506724100    -10.300185840400      8.432090788810
      72   24  2   0.42380     12.051478731800    -10.449332114300      7.567119233030
      73   25  1  -0.84760     -2.895064238440     -3.977453520150    -12.758346245000
      74   25  2   0.42380     -2.712738029920     -3.329539000940    -12.018776147200
      75   25  2   0.42380     -2.040113442570     -4.415650616470    -13.035911447100
      76   26  1  -0.84760      8.634778016920      9.345808958750      3.103895879270
      77   26  2   0.42380      7.676268917620      9.626725159450      3.055456280480
      78   26  2   0.42380      8.874859347960      8.836013219890      2.277778902600
      79   27  1  -0.84760      6.960314400430      1.680203182520      0.078483566342
      80   27  2   0.42380      6.763290099970      2.218840534880     -0.740693598664
      81   27  2   0.42380      7.774924388290      2.045066116410      0.529355618223
      82   28  1  -0.84760     -6.567491014520      7.326675910020     -3.080837782990
      83   28  2   0.42380     -7.371353521070      7.829675296710     -2.763352842320
      84   28  2   0.42380     -6.585624426490      7.264919621120     -4.078764303410
      85   29  1  -0.84760     -0.682881201283     13.686231403100     -2.009467894970
      86   29  2   0.42380     -0.623787877060     13.618539421300     -3.005422600080
      87   29  2   0.42380     -0.022118905772     14.361375179000     -1.681483031540
      88   30  1  -0.84760     -2.894993076530    -13.714682151500    -15.944047650700
      89   30  2   0.42380     -2.282926990850    -14.381254712000    -16.369554558300
      90   30  2   0.42380     -3.762631527380    -13.694216179900    -16.440821907900
      91   31  1  -0.84760     14.308556629100      3.437663595850      8.104336938120
      92   31  2   0.42380     13.819868236800      2.907917417710      8.797555981430
      93   31  2   0.42380     14.135756281600      4.412306080870      8.246506084940
      94   32  1  -0.84760      1.790149512370    -17.753858277200      9.187237628160
      95   32  2   0.42380      0.994729881662    -18.211037271500      8.789374613830
      96   32  2   0.42380      2.593971861450    -18.341195237600      9.092871712790
      97   33  1  -0.84760    -13.653504633300     -9.302790890640     -8.329506780550
      98   33  2   0.42380    -13.819914188800    -10.102495818300     -7.752636007700
      99   33  2   0.42380    -13.842949239000     -9.534808075970     -9.283592084420
     100   34  1  -0.84760     -6.538187510670     -7.918731308200     -8.862758102600
     101   34  2   0.42380     -6.805790980090     -7.431923668730     -9.694266794870
     102   34  2   0.42380     -7.296377631800     -8.493121187170     -8.554174228830
     103   35  1  -0.84760    -14.877838522700     10.136529469900     12.309518359600
     104   35  2   0.42380    -15.211131700500     10.513035068100     13.173902066100
     105   35  2   0.42380    -14.196075261700     10.754323992600     11.917690867300
     106   36  1  -0.84760     11.222030065200    -15.466355630100    -10.022121728200
     107   36  2   0.42380     10.609052344100    -15.016968839800     -9.372268032370
     108   36  2   0.42380     11.243349363500    -14.945192084000    -10.875312237800
     109   37  1  -0.84760      0.262067974382      6.241980925170    -17.999984146700
     110   37  2   0.42380     -0.087362709397      6.011941235740    -18.908268209380
     111   37  2   0.42380     -0.254289830300      5.738910305480    -17.306951269300
     112   38  1  -0.84760      9.550931142720      4.189716896280      0.333506722491
     113   38  2   0.42380     10.454551597400      4.176969624650      0.761651068367
     114   38  2   0.42380      9.638998522860      3.967429649980     -0.637488909161
     115   39  1  -0.84760    -18.155399071000    -18.343096646500    -11.392442733100
     116   39  2   0.42380    -18.522328834000    -18.987260755580    -12.063572489300
     117   39  2   0.42380    -17.251562712100    -18.650545367580    -11.094860609500
     118   40  1  -0.84760      5.180049742170     15.206565422900    -16.917076364800
     119   40  2   0.42380      5.896875940950     14.530325754300    -16.747193725200
     120   40  2   0.42380      5.499626348000     16.110005637200    -16.631302726500
     121   41  1  -0.84760      6.239036844550     13.499248551700     16.338330539500
     122   41  2   0.42380      6.426668429380     12.750558611100     16.974143217300
     123   41  2   0.42380      5.254979663920     13.554169708000     16.169170461900
     124   42  1  -0.84760    -12.123876162800    -12.031157393000     13.292364511300
     125   42  2   0.42380    -12.016047757200    -12.832455664600     12.703896912500
     126   42  2   0.42380    -12.526562651500    -11.282556013300     12.765639188000
     127   43  1  -0.84760     16.674049591800    -15.231515021300    -10.808805811700
     128   43  2   0.42380     16.906040577200    -16.105095401400    -11.236634635300
     129   43  2   0.42380     17.120267693700    -14.487734986100    -11.306481072100
     130   44  1  -0.84760    -10.853878239600      1.357112909600     -9.137200650050
     131   44  2   0.42380    -10.516026095300      1.295384399620     -8.198027865270
     132   44  2   0.42380    -11.228618702500      0.472713783191     -9.415423170080
     133   45  1  -0.84760     -7.337938340550     -0.289327705790     -9.894555342860
     134   45  2   0.42380     -6.951263771060      0.215941942137     -9.123072770020
     135   45  2   0.42380     -7.325922775740      0.288182173221    -10.710850611600
     136   46  1  -0.84760      3.545117219870      7.132933670430     11.362806801400
     137   46  2   0.42380      2.604693292000      6.854929999850     11.558553563900
     138   46  2   0.42380      3.583199838280      7.570497540730     10.464426273100
     139   47  1  -0.84760     -0.101811939614     10.959933525200      5.326801199950
     140   47  2   0.42380      0.176481514960     11.091207722800      4.375318232060
     141   47  2   0.42380      0.430901484502     10.216012373100      5.730283203610
     142   48  1  -0.84760      7.084392577060    -11.004583025700      8.876392724840
     143   48  2   0.42380      6.802007836320    -11.929075058300      8.620319805890
     144   48  2   0.42380      7.933148185090    -11.049241302100      9.403288877980
     145   49  1  -0.84760     10.055026985100    -11.397399443800    -15.137861818000
     146   49  2   0.42380     10.870419566800    -10.982569989700    -15.541658130200
     147   49  2   0.42380      9.784460131910    -12.194518350700    -15.677671994100
     148   50  1  -0.84760     -6.661771842390     -0.421754568975     16.305433971000
     149   50  2   0.42380     -6.415112301250     -1.180456184660     16.908369232100
     150   50  2   0.42380     -7.655752166150     -0.388556677100     16.201026040500
     151   51  1  -0.84760    -10.086869336200      4.974855808220     -6.613360988900
     152   51  2   0.42380    -11.045058782600      5.234398189800     -6.733821509900
     153   51  2   0.42380     -9.766434229420      5.288475730390     -5.719513190480
     154   52  1  -0.84760      8.043379752560     -0.815475400109     -2.064821440300
     155   52  2   0.42380      8.198755258400     -0.216259463120     -1.279456102990
     156   52  2   0.42380      7.400449812080     -0.379577715350     -2.694610532020
     157   53  1  -0.84760     -9.427831811220     -6.314871274400      4.552870435180
     158   53  2   0.42380     -8.571294218030     -6.110279999740      4.079071150890
     159   53  2   0.42380     -9.583723701180     -5.634039745460      5.268528277900
     160   54  1  -0.84760     -6.748347012920     -4.080878807540      0.105448075983
     161   54  2   0.42380     -7.486048528380     -3.728639894490      0.681403128240
     162   54  2   0.42380     -6.165174382330     -4.688117100950      0.645051020702
     163   55  1  -0.84760     16.483191734500     -3.890814509370     -4.706942240300
     164   55  2   0.42380     17.070010033200     -3.776300545620     -3.905362028250
     165   55  2   0.42380     16.563651794800     -3.087094722210     -5.296485014350
     166   56  1  -0.84760      3.071827480370      9.428913563280      9.946251390000
     167   56  2   0.42380      2.163307738740      9.119323757840     10.226868623000
     168   56  2   0.42380      2.989109269720     10.283331808000      9.433292170600
     169   57  1  -0.84760     -7.379519039940      6.433373441910     17.157992541200
     170   57  2   0.42380     -7.402711319670      6.790859282940     16.224361997800
     171   57  2   0.42380     -7.654453712650      5.471920156550     17.153690703700
     172   58  1  -0.84760    -14.857427201800     -1.101489072470     -3.043878312750
     173   58  2   0.42380    -15.559994819800     -0.654059991218     -3.597237110790
     174   58  2   0.42380    -13.957311197100     -0.926425509064     -3.442806786030
     175   59  1  -0.84760     -2.375277482890     13.599699602900     11.284802240000
     176   59  2   0.42380     -1.599457494940     14.221591238800     11.178246435600
     177   59  2   0.42380     -2.401368219110     13.257197579900     12.223956986500
     178   60  1  -0.84760     -7.581873531290     17.454870639200     -2.411004630470
     179   60  2   0.42380     -7.423532987910     17.234841637900     -3.373561387720
     180   60  2   0.42380     -7.152161335640     16.759425578700     -1.835067483850
     181   61  1  -0.84760     -9.833436701920    -17.279949774900      3.772803907530
     182   61  2   0.42380     -9.595096242970    -17.094001134100      2.819589908160
     183   61  2   0.42380     -9.495287178430    -16.538016919800      4.351760329230
     184   62  1  -0.84760     -5.750715086290     15.444969108000    -13.600281272900
     185   62  2   0.42380     -4.768952446820     15.260688262700    -13.647000538800
     186   62  2   0.42380     -6.101355415910     15.618938345300    -14.520491066200
     187   63  1  -0.84760    -10.895352581500      8.920212480760    -13.495430242200
     188   63  2   0.42380    -10.788407912700      8.601209112870    -12.553729817900
     189   63  2   0.42380    -11.462576509000      9.743708255960    -13.506000213900
     190   64  1  -0.84760    -11.320963804700     -2.548576004090     -8.702138596230
     191   64  2   0.42380    -11.890433153500     -2.266912676440     -9.474388834600
     192   64  2   0.42380    -10.378462191100     -2.252758974280     -8.857647416550
     193   65  1  -0.84760     -2.525842796180    -12.065245497300      8.648742821100
     194   65  2   0.42380     -2.075536174660    -11.240846906100      8.991658130560
     195   65  2   0.42380     -2.522065346510    -12.055683463200      7.648795673310
     196   66  1  -0.84760    -17.832945972000    -15.388685845100     11.930966086300
     197   66  2   0.42380    -18.582015688480    -14.842157524600     12.305400800100
     198   66  2   0.42380    -16.982419593000    -15.155957395800     12.402604027400
     199   67  1  -0.84760    -10.859616120300     -4.659712396990     13.048526456900
     200   67  2   0.42380    -11.273791616300     -5.300579701260     13.694860547700
     201   67  2   0.42380    -10.468321354100     -5.166921073360     12.280654225100
     202   68  1  -0.84760     -2.527264631000    -14.778664601900      4.292777320560
     203   68  2   0.42380     -3.080375999550    -15.538771758700      4.633812398210
     204   68  2   0.42380     -2.922119899440    -13.913775181500      4.602705711330
     205   69  1  -0.84760     11.858747829700    -13.685756392000      1.210934662660
     206   69  2   0.42380     12.356680706800    -13.186831497300      1.920256028010
     207   69  2   0.42380     11.430040241000    -13.035006290100      0.584249647545
     208   70  1  -0.84760     13.654330949400      1.850709864790     15.720056072900
     209   70  2   0.42380     14.258037831100      2.058555090890     14.950420858700
     210   70  2   0.42380     14.201430096100      1.548534060700     16.500679097900
     211   71  1  -0.84760     -2.421307903460     -7.277346194260      5.612601409380
     212   71  2   0.42380     -2.789730288030     -6.515296327530      5.080112022470
     213   71  2   0.42380     -3.086355563770     -7.550620402750      6.307607032730
     214   72  1  -0.84760     17.782483162800      3.960267457900    -16.028624226400
     215   72  2   0.42380     18.182854259300      4.186785799810    -15.140709576300
     216   72  2   0.42380     18.181856653500      3.108087856260    -16.366693363500
     217   73  1  -0.84760      1.873229696050     -9.140045034280    -16.356010861600
     218   73  2   0.42380      1.756049915030     -9.739859556910    -15.564498740800
     219   73  2   0.42380      1.397152784140     -8.275926120730    -16.192764798300
     220   74  1  -0.84760     11.411505037800    -11.291885775100      3.637736358720
     221   74  2   0.42380     11.495817607600    -10.362189143300      3.279189899600
     222   74  2   0.42380     10.488255810900    -11.634059600100      3.463013897040
     223   75  1  -0.84760     -1.972829842200      6.273892100790     -8.804833401900
     224   75  2   0.42380     -2.222537155380      5.396816195930     -8.394487066640
     225   75  2   0.42380     -2.739173863820      6.910937252040     -8.721825475760
     226   76  1  -0.84760      8.148922450800      6.716397363380    -14.625458416300
     227   76  2   0.42380      8.863476393790      6.149859618920    -14.215034676000
     228   76  2   0.42380      7.761697183120      6.243125635680    -15.416704562500
     229   77  1  -0.84760     -0.474110076983    -16.487768318400     -4.844583903790
     230   77  2   0.42380      0.255562956669    -15.987225146200     -4.378715041600
     231   77  2   0.42380     -0.073097239370    -17.182383752900     -5.441825983910
     232   78  1  -0.84760     16.863669513400     -9.887509134600     17.014512654900
     233   78  2   0.42380     16.327929232600     -9.833565399760     16.171854702400
     234   78  2   0.42380     16.484408562600    -10.599378699600     17.605615736900
     235   79  1  -0.84760      5.972119627780     -5.642329579140     -6.043396799300
     236   79  2   0.42380      5.548497619780     -5.658577942310     -5.137703481990
     237   79  2   0.42380      6.338488047940     -4.729491751140     -6.223677914430
     238   80  1  -0.84760     14.862797813100      2.894554155980     13.415432804100
     239   80  2   0.42380     14.618025062500      3.775205528940     13.009798165700
     240   80  2   0.42380     14.035291556800      2.351190764200     13.556817458100
     241   81  1  -0.84760     14.574138053900    -18.367340960200    -17.938137525700
     242   81  2   0.42380     14.270959061000    -18.186307104100    -18.873717154080
     243   81  2   0.42380     14.282465831100    -19.283948525880    -17.664718643500
     244   82  1  -0.84760      9.176211894120     -6.494767076070     -8.557693820360
     245   82  2   0.42380      9.865401979130     -5.864232604600     -8.200701793820
     246   82  2   0.42380      8.296158689800     -6.024421364050     -8.623125225180
     247   83  1  -0.84760    -10.851716109900      4.953343120040      1.947357244440
     248   83  2   0.42380     -9.949436470580      4.739636293790      2.321817983150
     249   83  2   0.42380    -11.286321042200      4.112544699530      1.624593292090
     250   84  1  -0.84760      9.168961530920     13.767144605300     -1.878043980700
     251   84  2   0.42380      9.162804220590     13.296032995900     -2.760096098790
     252   84  2   0.42380      8.245034922690     13.770473879400     -1.495488705570
     253   85  1  -0.84760     16.367428366600    -11.114829101000      0.302073670645
     254   85  2   0.42380     16.523390735000    -11.691248112100     -0.500059026151
     255   85  2   0.42380     15.609006404600    -11.486675122100      0.837355525600
     256   86  1  -0.84760      6.600927400780      9.730668837180     -0.381487411239
     257   86  2   0.42380      6.593262134480     10.080838161400     -1.318142464100
     258   86  2   0.42380      7.046670532590     10.394603566300      0.218932221893
     259   87  1  -0.84760      6.007814999050      8.918566392200      9.864443322920
     260   87  2   0.42380      5.844124959590      8.465522995980     10.740775025000
     261   87  2   0.42380      5.153143933330      9.315270657330      9.529535730530
     262   88  1  -0.84760     -4.766449020050     17.213344990900     -8.592530915020
     263   88  2   0.42380     -4.169900623490     16.685190771500     -9.196834755060
     264   88  2   0.42380     -4.656806109360     16.892049138100     -7.651920790100
     265   89  1  -0.84760     -0.390888526548      3.529937603770     -7.286800989010
     266   89  2   0.42380     -0.741439834375      4.466349121530     -7.302525174110
     267   89  2   0.42380     -0.334671321460      3.210922000860     -6.340720299560
     268   90  1  -0.84760    -17.750009927600     18.120212896100     18.512375014600
     269   90  2   0.42380    -17.272688975100     18.420701863100     17.686620154500
     270   90  2   0.42380    -17.657044819400     18.817212370280     19.223394860780
     271   91  1  -0.84760     12.722999332800    -18.523795243800     15.164878784100
     272   91  2   0.42380     13.085913498200    -19.064226509380     15.923975191500
     273   91  2   0.42380     11.743202186800    -18.375900740900     15.299507045300
     274   92  1  -0.84760    -17.140479592800     16.168148413500     -2.222745198070
     275   92  2   0.42380    -16.595514204100     16.434216711000     -3.017868072950
     276   92  2   0.42380    -17.386824796300     15.201722041400     -2.295780175860
     277   93  1  -0.84760     -4.910603530890     -4.989254112290    -17.048011920700
     278   93  2   0.42380     -5.610111833920     -5.685543610110    -17.208850564200
     279   93  2   0.42380     -5.332210672590     -4.182736288920    -16.633552732600
     280   94  1  -0.84760    -17.535691790400      2.912987272880     -4.533311849530
     281   94  2   0.42380    -17.267966656600      3.775399731960     -4.962925633290
     282   94  2   0.42380    -16.719328464400      2.433273810180     -4.211712854390
     283   95  1  -0.84760    -17.390871004500     -0.747058000149      7.098617534330
     284   95  2   0.42380    -17.977601604100     -0.270770283156      7.753519980590
     285   95  2   0.42380    -17.853905368700     -0.800787582305      6.213907237370
     286   96  1  -0.84760     -2.937475556240    -10.348586943200      0.844323017514
     287   96  2   0.42380     -2.901730617490     -9.531459936790      1.419671394300
     288   96  2   0.42380     -2.819415508120    -11.162352750600      1.413398615140
     289   97  1  -0.84760     18.436022425200    -13.421272399900     -1.705534791130
     290   97  2   0.42380     19.397435623080    -13.303028615000     -1.953935818010
     291   97  2   0.42380     18.025038121600    -14.122450321000     -2.288150809710
     292   98  1  -0.84760     -0.323429044583     13.513537018400      5.930728589550
     293   98  2   0.42380     -1.285762632290     13.339386449400      6.139500343590
     294   98  2   0.42380      0.228397399451     12.734284232300      6.227802100720
     295   99  1  -0.84760    -14.275925095100     14.233102410100    -14.079079049400
     296   99  2   0.42380    -14.800456551600     13.392268022600    -13.945421711800
     297   99  2   0.42380    -13.680065596200     14.131174549300    -14.875673154800
     298  100  1  -0.84760     15.695085692200    -17.843566858100     -6.890789994920
     299  100  2   0.42380     16.593690180900    -17.942678184500     -6.463371092820
     300  100  2   0.42380     14.984146988600    -18.096483732700     -6.234589404940
     301  101  1  -0.84760    -12.420969812700    -10.911706543800     18.101314620600
     302  101  2   0.42380    -11.594412802600    -11.399984401800     17.821335617300
     303  101  2   0.42380    -13.194443429000    -11.545417314600     18.113530342600
     304  102  1  -0.84760     16.142266003600      8.393811718210    -13.367427610100
     305  102  2   0.42380     15.152021426200      8.506625913990    -13.285643540000
     306  102  2   0.42380     16.582018892600      8.682826047950    -12.517081731200
     307  103  1  -0.84760     16.257318548700     -6.735470129280     10.245826022000
     308  103  2   0.42380     17.248724111900     -6.855243540400     10.298450533700
     309  103  2   0.42380     15.819883439800     -7.626548500860     10.124872058600
     310  104  1  -0.84760     14.987703458600     18.445087312700      8.883144559960
     311  104  2   0.42380     15.933257152600     18.313253775200      9.180714938500
     312  104  2   0.42380     14.580764036000     19.203581919180      9.392149705510
     313  105  1  -0.84760     -6.801054205920    -17.924856427800    -17.861434835700
     314  105  2   0.42380     -6.106988420080    -18.103474636700    -18.558835882700
     315  105  2   0.42380     -7.323329414850    -18.760091381780    -17.689355848600
     316  106  1  -0.84760     -1.976077060730      7.222216757230     -4.784960704240
     317  106  2   0.42380     -2.334297619990      7.902463775180     -5.424446455060
     318  106  2   0.42380     -2.114381746890      7.540918248250     -3.847250102080
     319  107  1  -0.84760     15.100131152700     15.545424717000    -12.670888215700
     320  107  2   0.42380     14.834914107200     15.430144064000    -11.713615898200
     321  107  2   0.42380     14.303821204000     15.397778404000    -13.257480946500
     322  108  1  -0.84760      9.617786888080     18.009806289500    -17.613938589800
     323  108  2   0.42380      9.689616106850     17.238350818400    -18.246154549400
     324  108  2   0.42380      9.778511172920     17.691257437100    -16.679757486900
     325  109  1  -0.84760     -1.603929138330     17.027342028700     -2.786432155400
     326  109  2   0.42380     -2.390794155460     16.625631257400     -3.254910437740
     327  109  2   0.42380     -1.596133674220     18.016082416900     -2.935870020610
     328  110  1  -0.84760     16.725344805900     15.547984693200      4.222187639700
     329  110  2   0.42380     16.432063586200     16.364432583200      3.724795471290
     330  110  2   0.42380     16.042007629400     14.826425287800      4.110821901700
     331  111  1  -0.84760      3.793048362690     -1.481367300030     10.348821863900
     332  111  2   0.42380      4.632800303340     -0.971875807034     10.536532004100
     333  111  2   0.42380      3.905300464180     -2.429802703620     10.645250187400
     334  112  1  -0.84760      1.946135551850     -9.513615679300      1.229197226380
     335  112  2   0.42380      1.244376161890    -10.027128842400      1.722996770620
     336  112  2   0.42380      2.026338306020     -8.597162724920      1.621219547970
     337  113  1  -0.84760    -11.194548721900     -7.323229256430     -9.053967418070
     338  113  2   0.42380    -11.382172000000     -7.432879884580    -10.030068972900
     339  113  2   0.42380    -10.587189738000     -6.540672413700     -8.917146905880
     340  114  1  -0.84760     10.094570129600     -4.715445152360      0.835345331133