LAMMPS Atom File

         4500 atoms
         3000 bonds
         1500 angles
           0 dihedrals
           0 impropers

           2 atom types
           1 bond types
           1 angle types

         0.0  39.1117097051 xlo xhi
         0.0  39.1117097051 ylo yhi
         0.0  39.1117097051 zlo zhi

Masses

         1   15.9994
         2   1.00794

Atoms

       1    1  1  -0.84760    -17.983573856000      6.289685941390    -16.092143077300
       2    1  2   0.42380    -16.989761623100      6.347097114290    -16.187228318000
       3    1  2   0.42380    -18.211680575700      5.933104033710    -15.186153746500
       4    2  1  -0.84760    -15.297348301100     -9.892061820710    -11.623276389900
       5    2  2   0.42380    -15.976462508800     -9.351199865920    -12.119534627900
       6    2  2   0.42380    -14.490992903400    -10.024689938500    -12.199644982900
       7    3  1  -0.84760     -5.944913099230     14.125758748900     -3.674125564310
       8    3  2   0.42380     -6.932430520980     14.020211069000     -3.791040187080
       9    3  2   0.42380     -5.763369208020     14.857756407100     -3.017451182330
      10    4  1  -0.84760    -19.245080959500    -11.360252722100      7.038249605900
      11    4  2   0.42380    -20.017915989441    -10.805537324600      7.346497629800
      12    4  2   0.42380    -18.484010999500    -11.256622608700      7.678588044190
      13    5  1  -0.84760      2.061494131340     10.931518884300     -7.943560309230
      14    5  2   0.42380      2.495624129560     11.785169894300     -7.655791134610
      15    5  2   0.42380      2.028769708750     10.297304240300     -7.171096136890
      16    6  1  -0.84760     -5.449982735500    -13.213824230100      5.670740534510
      17    6  2   0.42380     -5.419843680990    -13.025315342400      6.652349436580
      18    6  2   0.42380     -6.398289705100    -13.184767829300      5.354718989390
      19    7  1  -0.84760    -13.446029544700     -4.090733459770     19.217982321000
      20    7  2   0.42380    -13.918112393700     -3.242521741610     18.977826819400
      21    7  2   0.42380    -14.119191783500     -4.811379239340     19.383880665600
      22    8  1  -0.84760     18.190904450300     18.452428525300    -13.809507439100
      23    8  2   0.42380     17.738378584900     18.960486598000    -14.542376687900
      24    8  2   0.42380     17.504708931600     17.968192234200    -13.266689859600
      25    9  1  -0.84760    -12.978918572500     -1.037572920300     11.602741340900
      26    9  2   0.42380    -12.773847197100     -1.057628088120     10.624199813300
      27    9  2   0.42380    -12.194816890500     -0.666303208574     12.100077598800
      28   10  1  -0.84760     -7.308716329600    -15.203668367500      1.094505877650
      29   10  2   0.42380     -7.055685422780    -14.245136536100      0.963387273126
      30   10  2   0.42380     -6.487354178020    -15.773003635400      1.059554930820
      31   11  1  -0.84760     -2.302546658170      7.586707550570     13.963550653700
      32   11  2   0.42380     -2.159868523940      6.599253861180     14.031212765100
      33   11  2   0.42380     -2.320693463510      7.855648207550     13.000564871600
      34   12  1  -0.84760    -14.504613785400      9.177763811130     15.373279862200
      35   12  2   0.42380    -13.812041136600      8.696965237080     14.835529123000
      36   12  2   0.42380    -15.242003307500      8.544867780510     15.609286868500
      37   13  1  -0.84760    -15.603816131600     13.239190119600      9.112698759550
      38   13  2   0.42380    -15.713508842300     14.116931253100      8.646289055710
      39   13  2   0.42380    -16.482330349800     12.762042516100      9.135999679650
      40   14  1  -0.84760      4.258916662570      4.218418833520     14.609449299000
      41   14  2   0.42380      4.509043467450      5.105337264780     14.997794863900
      42   14  2   0.42380      5.076134664390      3.771440235550     14.245629466600
      43   15  1  -0.84760     -9.003447181490    -15.377303824800     -3.880664770910
      44   15  2   0.42380     -9.147931213890    -15.560856699400     -2.908331131350
      45   15  2   0.42380     -8.659252222860    -16.202713742700     -4.328133538290
      46   16  1  -0.84760    -17.958432744800      9.855458084440      0.092733070809
      47   16  2   0.42380    -18.047699246900      9.223155755490      0.862294800891
      48   16  2   0.42380    -17.067630487800      9.726536061740     -0.342985245378
      49   17  1  -0.84760      0.655429649278      3.090881915680     16.289038114600
      50   17  2   0.42380      0.861915713073      3.248713657730     17.254673991400
      51   17  2   0.42380      1.406974270640      3.435890412870     15.726766099500
      52   18  1  -0.84760     -9.687062358440      3.499816020930      3.417593540270
      53   18  2   0.42380    -10.042230716500      2.733204797030      3.952535283700
      54   18  2   0.42380    -10.336290234300      3.729402595620      2.692477570250
      55   19  1  -0.84760     14.165052850500     -2.333050226280     13.463228027600
      56   19  2   0.42380     13.366269823500     -2.804802854160     13.089871450100
      57   19  2   0.42380     14.894311099900     -2.319882743610     12.779116177700
      58   20  1  -0.84760     -1.278391394320      1.437627190020     -7.307391450720
      59   20  2   0.42380     -1.126700702850      2.414911646980     -7.159387990280
      60   20  2   0.42380     -1.243035442940      1.239421134230     -8.286913944670
      61   21  1  -0.84760     -7.499785765240     17.223821936900      8.945338176810
      62   21  2   0.42380     -8.202930777650     16.576345711300      9.239211667990
      63   21  2   0.42380     -7.696105903460     17.528848205600      8.013449031710
      64   22  1  -0.84760     10.130418194700     -4.586525699880    -16.878563425200
      65   22  2   0.42380      9.558471845600     -4.681362540550    -17.693353795400
      66   22  2   0.42380     10.276269736600     -3.616382775140    -16.684785115500
      67   23  1  -0.84760    -18.635602119200      7.863487148370    -19.251621797500
      68   23  2   0.42380    -17.793954840800      7.550403803220    -18.811611936500
      69   23  2   0.42380    -18.621525976800      7.607504631120    -20.218200719841
      70   24  1  -0.84760     13.966638422000     -9.130518085710      8.267766859940
      71   24  2   0.42380     14.068512465200     -8.274658039640      8.774842062310
      72   24  2   0.42380     14.396321832100     -9.874390637380      8.779651411350
      73   25  1  -0.84760     -5.119812667900     -6.107300552940    -13.078310808600
      74   25  2   0.42380     -5.653895853060     -6.852290139030    -13.477992767100
      75   25  2   0.42380     -5.535904169550     -5.825410545850    -12.213784414500
      76   26  1  -0.84760     11.854975194200     10.924874904700      1.797506015810
      77   26  2   0.42380     12.389573867800     10.938561453300      2.642501244580
      78   26  2   0.42380     12.300651787700     11.500316297400      1.111765848120
      79   27  1  -0.84760      7.818759076080      0.747969068743     -0.157639592531
      80   27  2   0.42380      7.748787053320      0.297860434914     -1.047867728340
      81   27  2   0.42380      8.580811383930      0.353873129201      0.356135329527
      82   28  1  -0.84760     -8.647512834590      9.626698272330     -3.209100689830
      83   28  2   0.42380     -7.965124315310      9.271586465290     -2.570162889060
      84   28  2   0.42380     -9.429422701080      9.983072191960     -2.697617952970
      85   29  1  -0.84760      2.638076105900     17.967206230000      1.308757042210
      86   29  2   0.42380      3.157977572480     17.805082247600      0.470056690850
      87   29  2   0.42380      3.214723014890     17.770359784000      2.101681893040
      88   30  1  -0.84760     -3.458161349230    -16.976718511500    -14.619743708400
      89   30  2   0.42380     -3.669483463260    -16.056922809700    -14.950377691900
      90   30  2   0.42380     -3.903032284940    -17.123737388500    -13.736298576900
      91   31  1  -0.84760     16.121661755500      0.772412231207      6.450182667330
      92   31  2   0.42380     16.184199502900     -0.171736621118      6.773713152440
      93   31  2   0.42380     16.676475738900      0.879470335233      5.625125089840
      94   32  1  -0.84760      3.718046764370    -18.470107949700      5.752135897080
      95   32  2   0.42380      3.947342648800    -19.322386676200      5.281982337350
      96   32  2   0.42380      2.954682078060    -18.025756504100      5.283279684100
      97   33  1  -0.84760    -14.373407433800     -9.793295372440     -8.768693305870
      98   33  2   0.42380    -15.340810540500     -9.794297169120     -8.515453843050
      99   33  2   0.42380    -14.277914240100    -10.082321477500     -9.721239871940
     100   34  1  -0.84760     -6.629925449510     -7.855875475550    -10.074207437500
     101   34  2   0.42380     -6.417226982570     -8.798020889570     -9.815129493620
     102   34  2   0.42380     -7.289588871710     -7.473154159440     -9.427393272830
     103   35  1  -0.84760    -14.346862151100      8.247955756640     12.914285327700
     104   35  2   0.42380    -15.112255474800      8.112480578530     12.285143423100
     105   35  2   0.42380    -14.675200735300      8.692185924800     13.747863957400
     106   36  1  -0.84760      8.164444794370    -12.443973277300    -15.588727105800
     107   36  2   0.42380      8.481225404780    -13.027716629000    -16.336319069500
     108   36  2   0.42380      7.165095924240    -12.408307594200    -15.594185568600
     109   37  1  -0.84760     -2.258201850730      6.243566858310    -19.318077965800
     110   37  2   0.42380     -1.996965923980      5.278920233280    -19.352901512500
     111   37  2   0.42380     -1.884267271100      6.719105881080    -20.114341469841
     112   38  1  -0.84760     11.540369550600      3.747506651100     -1.412694577890
     113   38  2   0.42380     11.614434740200      2.920577979050     -1.970102255480
     114   38  2   0.42380     11.813831779800      3.541710886710     -0.473084811785
     115   39  1  -0.84760    -19.060866535800     19.055681127300    -11.813541198400
     116   39  2   0.42380    -19.915881920641     18.868326860200    -12.297118565800
     117   39  2   0.42380    -18.381195218800     18.364124102600    -12.058072959900
     118   40  1  -0.84760      5.108223091960     15.444685077300    -18.695923915900
     119   40  2   0.42380      5.254943439900     16.051494693100    -19.477112260500
     120   40  2   0.42380      4.360048357260     15.798714906100    -18.134766677100
     121   41  1  -0.84760      6.606393454900     14.220467362500     17.253060521900
     122   41  2   0.42380      6.605669667080     13.426039753200     17.860418941400
     123   41  2   0.42380      5.721746971200     14.683394949300     17.308726025200
     124   42  1  -0.84760    -11.155458263900    -13.218516590000     15.388810246600
     125   42  2   0.42380    -10.662387795200    -12.784954141600     16.143068237100
     126   42  2   0.42380    -12.112007560300    -12.927388381200     15.404866693400
     127   43  1  -0.84760     13.646369016400    -18.377071913600    -15.521625491300
     128   43  2   0.42380     14.280715216700    -18.109907739400    -16.247041373500
     129   43  2   0.42380     14.063831581500    -19.091628581200    -14.960257719300
     130   44  1  -0.84760    -11.426166274900      1.428668851500     -9.618974122400
     131   44  2   0.42380    -10.843521613000      1.298834587240     -8.816684734580
     132   44  2   0.42380    -12.311731236300      1.794071734010     -9.332172043420
     133   45  1  -0.84760     -6.255308954260     -0.269899436717    -12.210008985100
     134   45  2   0.42380     -5.732270248660      0.182834438906    -11.487885345900
     135   45  2   0.42380     -6.063397584120      0.170825141598    -13.086896590300
     136   46  1  -0.84760      4.306206958170      7.091966067950     11.369631862500
     137   46  2   0.42380      3.899011875410      6.181096180420     11.302488638300
     138   46  2   0.42380      3.772939035690      7.649380650350     12.005960634600
     139   47  1  -0.84760     -1.859952711230     11.144681070800      4.261437800220
     140   47  2   0.42380     -2.200486621260     11.789914179500      3.577543881840
     141   47  2   0.42380     -2.288537550090     10.252276981300      4.120264229710
     142   48  1  -0.84760      8.848759017700    -13.427960975600     15.295122591800
     143   48  2   0.42380      8.691135746100    -12.471971431800     15.047657652100
     144   48  2   0.42380      9.065765695670    -13.953742091600     14.472649297500
     145   49  1  -0.84760     11.589263389100    -12.129475635400    -17.766353512600
     146   49  2   0.42380     11.184217064800    -12.717807688100    -17.066494333200
     147   49  2   0.42380     11.769973722400    -11.225730293500    -17.378296645100
     148   50  1  -0.84760     -6.366264230900      1.110002363760    -18.033871335400
     149   50  2   0.42380     -5.734792922300      1.541437613580    -18.678159789200
     150   50  2   0.42380     -7.256267954660      0.985193734134    -18.472410019800
     151   51  1  -0.84760     -9.681232639730      4.574353819910     -4.879620149410
     152   51  2   0.42380     -9.752961312650      4.687708147830     -5.870582204090
     153   51  2   0.42380    -10.522927074200      4.163428406000     -4.529347708000
     154   52  1  -0.84760     10.058933290600     14.125705004300     16.986374163900
     155   52  2   0.42380     10.157282271600     13.130553967100     16.984999015000
     156   52  2   0.42380      9.292072771570     14.385665791800     16.399564711600
     157   53  1  -0.84760      6.486381483570     -4.217607081570     -2.608713031170
     158   53  2   0.42380      5.830525654590     -4.757108256100     -3.136720241610
     159   53  2   0.42380      6.000563867970     -3.694573483810     -1.908415165980
     160   54  1  -0.84760    -11.954312010600     -6.989302431270      1.996027106740
     161   54  2   0.42380    -12.104997905600     -6.922511560580      1.009704268800
     162   54  2   0.42380    -12.311750279800     -6.169849295800      2.444061081490
     163   55  1  -0.84760     -7.573611398050     -5.786324528170      0.730888175256
     164   55  2   0.42380     -7.306857111540     -5.096309829160      1.403734268940
     165   55  2   0.42380     -8.472857947700     -5.557932654770      0.357802668833
     166   56  1  -0.84760     19.106347009800     -3.080261795770     -7.146165508120
     167   56  2   0.42380     18.496280675500     -3.391653029690     -7.874763179850
     168   56  2   0.42380     20.051663307441     -3.100171773800     -7.471712263830
     169   57  1  -0.84760     -7.908740358130     -6.046805690040     18.302783668600
     170   57  2   0.42380     -7.263779604190     -6.676812734720     17.870213732600
     171   57  2   0.42380     -8.041045897540     -5.249161179510     17.714346349000
     172   58  1  -0.84760      3.551588947430     10.297581899000      8.688207054710
     173   58  2   0.42380      3.097854428570     10.555413713800      7.835184345950
     174   58  2   0.42380      2.929680338290      9.744498763350      9.242579426790
     175   59  1  -0.84760     -7.847310367710      4.851317038050     18.205522065200
     176   59  2   0.42380     -8.330799398900      4.743590051180     17.336825770200
     177   59  2   0.42380     -7.528657310800      5.794970766610     18.294840987600
     178   60  1  -0.84760    -12.791348760500     -1.811596452320     -3.428023189370
     179   60  2   0.42380    -13.426877560500     -2.582456921540     -3.384695583620
     180   60  2   0.42380    -13.214152565800     -1.059002722630     -3.932839611770
     181   61  1  -0.84760     -2.923730072130     15.883439955400      9.866686374710
     182   61  2   0.42380     -3.783035787620     16.167478857700      9.441344642310
     183   61  2   0.42380     -2.212232299900     16.555580731200      9.661752976720
     184   62  1  -0.84760     -8.981377478320    -16.790510959000     -1.111264828810
     185   62  2   0.42380     -8.226092268590    -17.328738787900     -0.737292829653
     186   62  2   0.42380     -9.336178107790    -16.178201027900     -0.404728869643
     187   63  1  -0.84760    -10.870329193700    -17.998237102100      2.920039699980
     188   63  2   0.42380    -10.112825918600    -17.352081555200      2.826917213530
     189   63  2   0.42380    -10.893645926100    -18.351985632500      3.855089595560
     190   64  1  -0.84760    -10.828386723500     18.030567612100    -13.817588668400
     191   64  2   0.42380    -10.953552395200     17.297695601400    -13.148834475500
     192   64  2   0.42380    -10.612163869200     17.634228159400    -14.709868173700
     193   65  1  -0.84760    -16.535031177400      9.379130445750    -16.055624784500
     194   65  2   0.42380    -16.407199324100      8.769068114700    -16.837598549700
     195   65  2   0.42380    -16.275640224400      8.902894891660    -15.215436692100
     196   66  1  -0.84760     -9.966834782590     -3.009384998640    -11.138964955100
     197   66  2   0.42380    -10.758833391600     -3.099517253680    -10.535131882200
     198   66  2   0.42380     -9.375672289680     -3.809204631490    -11.034967542200
     199   67  1  -0.84760     -0.022034730004    -14.695193023800     15.103243297000
     200   67  2   0.42380     -0.723903709017    -15.337175197700     15.411851178800
     201   67  2   0.42380      0.084995648263    -13.967388969700     15.780624841600
     202   68  1  -0.84760     18.957210227900    -12.479863335200     10.465846523200
     203   68  2   0.42380     19.001802840800    -11.610153323100     10.957391021200
     204   68  2   0.42380     18.000889620000    -12.719295970800     10.298147662100
     205   69  1  -0.84760    -11.965654629000     -3.759040678690     12.301282156200
     206   69  2   0.42380    -12.508762165500     -4.417356403660     11.780077196400
     207   69  2   0.42380    -12.562865797600     -3.037687399110     12.651978985600
     208   70  1  -0.84760     -1.406676201720    -13.749752029900      3.312715099270
     209   70  2   0.42380     -0.668317614404    -13.847792874700      2.645471073980
     210   70  2   0.42380     -1.208227764370    -12.979395419300      3.918659742040
     211   71  1  -0.84760     12.489376845600    -15.018332769200      4.501757087160
     212   71  2   0.42380     12.886420895000    -14.692911727300      5.359927914170
     213   71  2   0.42380     11.508053096700    -15.167046911100      4.623772675600
     214   72  1  -0.84760     10.310331331900     -0.088010971032     17.501081723100
     215   72  2   0.42380      9.590214900100      0.509873801258     17.148993490200
     216   72  2   0.42380     11.007114307000     -0.221307234452     16.796294101400
     217   73  1  -0.84760      0.826669463502     -6.963479884100      5.081349879340
     218   73  2   0.42380      0.682367954187     -7.711924220860      4.434041491330
     219   73  2   0.42380      0.978133682387     -7.338365279740      5.995964295660
     220   74  1  -0.84760     19.392317427600      6.421226388860    -13.722662402300
     221   74  2   0.42380     18.585695086400      5.860684151140    -13.910153198000
     222   74  2   0.42380     19.584489315341      7.003533303490    -14.512591907200
     223   75  1  -0.84760     -3.096565200620     -6.257770969420    -15.190589279700
     224   75  2   0.42380     -3.943878030630     -6.334261939640    -14.665032337400
     225   75  2   0.42380     -2.954312073380     -7.095754002650    -15.717417984100
     226   76  1  -0.84760     -2.881157468290      7.051865613810     -7.953665433200
     227   76  2   0.42380     -2.146811834780      7.455886619640     -8.499104263310
     228   76  2   0.42380     -3.172564361440      7.702830908740     -7.252718782290
     229   77  1  -0.84760     11.759681160500      4.576841268390    -18.247596760400
     230   77  2   0.42380     12.377245552100      5.048191458500    -17.617959388200
     231   77  2   0.42380     10.998915689800      5.181500179300    -18.483443108800
     232   78  1  -0.84760     -0.285861460309    -15.465424689400     -6.465483820020
     233   78  2   0.42380      0.679158503702    -15.347070824300     -6.699425760840
     234   78  2   0.42380     -0.671342038712    -16.211569840800     -7.008320938070
     235   79  1  -0.84760    -18.213261839000    -14.086311361200    -17.238344553700
     236   79  2   0.42380    -18.459821026800    -14.945058628000    -17.687523469900
     237   79  2   0.42380    -18.553095734200    -14.092523448500    -16.297879597600
     238   80  1  -0.84760      4.509961418000     -4.774966794780     -6.730445429400
     239   80  2   0.42380      5.350367648040     -5.302450428490     -6.606033272920
     240   80  2   0.42380      4.433423800760     -4.093376392910     -6.002725347760
     241   81  1  -0.84760     18.516070101500      6.432909412060     15.483920957600
     242   81  2   0.42380     17.775229956100      6.692652410270     16.103347671400
     243   81  2   0.42380     18.274259564600      6.690767055550     14.548486780400
     244   82  1  -0.84760     16.830765521100    -18.766121464400     18.526700532200
     245   82  2   0.42380     16.567681617700    -17.968240874600     19.069078098100
     246   82  2   0.42380     16.707478575300    -19.595224146141     19.072034441100
     247   83  1  -0.84760      9.405146685940     -5.166689610590     -7.045567088170
     248   83  2   0.42380      9.899830698590     -4.593254085280     -7.698605698010
     249   83  2   0.42380      8.428760799960     -5.151025859050     -7.261032279170
     250   84  1  -0.84760    -12.408939325700      6.889118950270      3.490410253480
     251   84  2   0.42380    -11.946758048800      6.060386190090      3.174830660600
     252   84  2   0.42380    -13.305345521100      6.649420687210      3.863238197160
     253   85  1  -0.84760      7.680382945710     12.629444276200     -2.085405042750
     254   85  2   0.42380      7.699031375220     12.118537548000     -1.225971187780
     255   85  2   0.42380      7.090497603580     13.430563239900     -1.984193930530
     256   86  1  -0.84760     17.230427122900    -11.700876186500      0.318000986547
     257   86  2   0.42380     17.519414087500    -11.418476031200     -0.596732136595
     258   86  2   0.42380     16.958988789700    -12.663155167300      0.299551205260
     259   87  1  -0.84760      8.367514567440     10.317440256900     -4.631145005120
     260   87  2   0.42380      8.328037183690     10.023238006600     -5.586072527020
     261   87  2   0.42380      8.602040061800     11.288722421500     -4.591035787130
     262   88  1  -0.84760      6.354616213680      9.350904513550     10.410968988700
     263   88  2   0.42380      5.880770201040      8.813249436950     11.108390650900
     264   88  2   0.42380      5.684689092530      9.858646863180      9.869309170420
     265   89  1  -0.84760     -4.916829291600     18.097630124300     -9.122868266990
     266   89  2   0.42380     -5.586624129430     18.633935122900     -9.636436007090
     267   89  2   0.42380     -4.875402453920     18.430119992100     -8.180671735000
     268   90  1  -0.84760     -0.401156924305      4.121682752870     -8.485577180770
     269   90  2   0.42380     -0.844253682125      4.364368072140     -7.622577123400
     270   90  2   0.42380     -0.108097623049      4.954330520000     -8.955485620610
     271   91  1  -0.84760    -19.460483656100     18.129216483500     18.588330766700
     272   91  2   0.42380    -19.802179457441     17.192653051500     18.510273626000
     273   91  2   0.42380    -19.208092956100     18.468548353800     17.682155940100
     274   92  1  -0.84760     11.160254862300     15.922015096100     18.475971990800
     275   92  2   0.42380     10.932815526100     15.640177579000     19.408087306800
     276   92  2   0.42380     10.519862656100     15.499719364800     17.834439343500
     277   93  1  -0.84760    -17.822802515100     18.208196967600     -3.776805095630
     278   93  2   0.42380    -17.709076108600     17.246928363000     -3.525749375930
     279   93  2   0.42380    -17.721266182200     18.779634805400     -2.962465381140
     280   94  1  -0.84760     -7.238016441040     -7.971304968250    -15.995802042000
     281   94  2   0.42380     -7.293284327620     -6.976141421950    -16.077011504600
     282   94  2   0.42380     -7.328866453780     -8.385199016620    -16.901582364100
     283   95  1  -0.84760     -8.604013413980    -10.794336013300      2.661954296360
     284   95  2   0.42380     -8.372252159630    -11.670375295800      2.239057268150
     285   95  2   0.42380     -7.791012698500    -10.409864763300      3.099231890730
     286   96  1  -0.84760    -17.754344060300     -0.853942239428     -5.572396106780
     287   96  2   0.42380    -17.619345600500     -1.335274688310     -4.706316151170
     288   96  2   0.42380    -18.709045073900     -0.566290981533     -5.648571748960
     289   97  1  -0.84760    -15.778734739100     -5.842229211070      6.888129282790
     290   97  2   0.42380    -15.707884645900     -5.713635864740      7.877292573440
     291   97  2   0.42380    -16.114853501700     -5.000408056560      6.465800830920
     292   98  1  -0.84760     -6.504620934610    -12.998325698900      3.060306123940
     293   98  2   0.42380     -5.796266143960    -12.868727324400      2.366448968690
     294   98  2   0.42380     -6.110549337550    -13.455540265500      3.857590525160
     295   99  1  -0.84760     19.378280429800    -15.325757095600     -0.367059174351
     296   99  2   0.42380     20.166131436941    -14.770113464600     -0.101444894220
     297   99  2   0.42380     19.568086099441    -16.288004258200     -0.171984301645
     298  100  1  -0.84760     -2.172335492720     12.996392761400      6.464439580800
     299  100  2   0.42380     -1.414801009650     13.492770066500      6.040468971020
     300  100  2   0.42380     -2.175145597780     12.050945557500      6.138676341760
     301  101  1  -0.84760    -14.426485869700     12.258173246600    -12.599339849800
     302  101  2   0.42380    -14.344149960900     12.723829631300    -11.718212770700
     303  101  2   0.42380    -14.761236782900     11.327097796100    -12.454286991600
     304  102  1  -0.84760     15.020562640900    -18.552163416000     -9.384040619410
     305  102  2   0.42380     14.655666860000    -19.482527084500     -9.348340292340
     306  102  2   0.42380     15.434427247000    -18.322421850500     -8.503168948370
     307  103  1  -0.84760    -10.869114898800    -13.188781607700    -19.228740333000
     308  103  2   0.42380    -11.406311477800    -13.980033540100    -19.520870808800
     309  103  2   0.42380     -9.903915704450    -13.443957480500    -19.171505822400
     310  104  1  -0.84760     14.147495885200      7.743391307340    -14.514054455600
     311  104  2   0.42380     13.502620077000      7.904494120450    -15.261169624500
     312  104  2   0.42380     13.726481447100      8.009929728350    -13.647045739900
     313  105  1  -0.84760     17.799508821800     -7.554857346660     12.640241674400
     314  105  2   0.42380     17.668011807200     -6.739726804840     12.076086788800
     315  105  2   0.42380     17.052579356300     -7.626777933520     13.301243794500
     316  106  1  -0.84760     14.632003962700     17.314235771400      9.214764266750
     317  106  2   0.42380     14.861965844600     18.105248776400      9.781699852840
     318  106  2   0.42380     14.544839358300     17.601799884600      8.260977491550
     319  107  1  -0.84760     -1.161562642870    -16.974492218300     17.775924336300
     320  107  2   0.42380     -0.782967019597    -17.176808429700     18.679103999900
     321  107  2   0.42380     -2.051200914820    -17.420926027000     17.679796299100
     322  108  1  -0.84760     -2.778668117570      7.732055121810     -4.753636819700
     323  108  2   0.42380     -3.619477509690      7.309302659030     -4.415524528680
     324  108  2   0.42380     -2.613259290660      8.586044166200     -4.260339108340
     325  109  1  -0.84760     14.450582017100     15.563468041000    -10.225656456500
     326  109  2   0.42380     14.060153000200     15.250121058900    -11.091323165800
     327  109  2   0.42380     15.149450857000     14.916112739500     -9.921496205600
     328  110  1  -0.84760     12.213368719200     17.180461592600    -16.149186173300
     329  110  2   0.42380     11.840138198800     17.616214179100    -15.330150971400
     330  110  2   0.42380     11.643865030900     17.410836871800    -16.938231659800
     331  111  1  -0.84760    -14.044989931200     10.047015931400     -0.469442011788
     332  111  2   0.42380    -13.683451698800     10.916341028600     -0.132449456923
     333  111  2   0.42380    -13.605131389600      9.817213723430     -1.337609857620
     334  112  1  -0.84760     -2.093863682120     17.860411692900     -4.059002675810
     335  112  2   0.42380     -2.765802987640     17.560168400600     -3.381986032680
     336  112  2   0.42380     -1.683848803310     18.722762981400     -3.761953766580
     337  113  1  -0.84760     14.901145588100     16.357752115700      0.677193301749
     338  113  2   0.42380     15.434728323100     17.151187436400      0.970024066646
     339  113  2   0.42380     14.037378154300     16.665733590600      0.278378518239
     340  114  1  -0.84760     -0.906186988293     -0.889564459376      7.072114024410