LAMMPS Atom File

         4500 atoms
         3000 bonds
         1500 angles
           0 dihedrals
           0 impropers

           2 atom types
           1 bond types
           1 angle types

         0.0  36.4709139351 xlo xhi
         0.0  36.4709139351 ylo yhi
         0.0  36.4709139351 zlo zhi

Masses

         1   15.9994
         2   1.00794

Atoms

       1    1  1  -0.84760    -16.247958723400      3.607505913100    -17.379122534900
       2    1  2   0.42380    -15.560989858100      2.908663590910    -17.179891044400
       3    1  2   0.42380    -15.793611959800      4.442888097280    -17.688485791700
       4    2  1  -0.84760    -14.167205276700     -8.976164062660    -11.104863143100
       5    2  2   0.42380    -13.365412473200     -9.558776722370    -10.971856417300
       6    2  2   0.42380    -14.402394803400     -8.530537735570    -10.241090567100
       7    3  1  -0.84760     -8.801071542400     15.086665743900     -7.264913920820
       8    3  2   0.42380     -9.310085250500     15.072630034800     -6.404269950380
       9    3  2   0.42380     -8.478054819010     14.164158966000     -7.476199133360
      10    4  1  -0.84760     17.200611585400    -11.228654563800      5.755899572650
      11    4  2   0.42380     16.827929497200    -10.457240171400      5.240120650640
      12    4  2   0.42380     16.790548905100    -11.249182410300      6.667725875040
      13    5  1  -0.84760     -0.285754130592     10.485988730200     -9.101302377520
      14    5  2   0.42380      0.542347953951     10.318435126000     -9.636253522290
      15    5  2   0.42380     -0.716754161196      9.613241796890     -8.872060662230
      16    6  1  -0.84760     -3.896953448210    -11.014335480600      5.799861790890
      17    6  2   0.42380     -4.620620206130    -10.835697876100      5.133232186280
      18    6  2   0.42380     -4.264186560410    -10.916230680000      6.724802485960
      19    7  1  -0.84760    -12.417412103600     -3.652299325160     17.992365394900
      20    7  2   0.42380    -12.650555217300     -3.531780839100     17.027420016600
      21    7  2   0.42380    -13.011455699400     -3.075728715650     18.553327549207
      22    8  1  -0.84760     14.264300032200    -17.021295638200    -15.238333704100
      23    8  2   0.42380     13.412140662700    -16.851229220300    -14.743458141400
      24    8  2   0.42380     14.858526000700    -17.607166319300    -14.687288294500
      25    9  1  -0.84760    -13.154489765300      2.389766795740     11.282721281300
      26    9  2   0.42380    -12.897241717300      1.751794119120     10.556901533900
      27    9  2   0.42380    -12.481296688500      3.127588511510     11.332018310900
      28   10  1  -0.84760     -7.268973198840    -15.785331895200      2.630864541330
      29   10  2   0.42380     -7.357773396390    -14.817161836600      2.396853296860
      30   10  2   0.42380     -6.562738366960    -16.202998803900      2.059211923410
      31   11  1  -0.84760     -2.582063929360      8.296196435330     11.754396077000
      32   11  2   0.42380     -1.829321862740      8.876162876330     11.442918455900
      33   11  2   0.42380     -2.275385725920      7.737170799780     12.524745879600
      34   12  1  -0.84760    -16.710465134400      6.295534062870     15.073563695300
      35   12  2   0.42380    -17.630371913800      6.686595305840     15.044535751500
      36   12  2   0.42380    -16.555906867800      5.873070693960     15.966668641100
      37   13  1  -0.84760    -13.181861679900     12.809313472500      7.045649160460
      38   13  2   0.42380    -13.160059280100     12.359338523200      6.152874160570
      39   13  2   0.42380    -12.286972120200     13.212099473300      7.237836864320
      40   14  1  -0.84760      2.436257327510     -2.375078465500     15.663287759500
      41   14  2   0.42380      1.827493573880     -3.151208436590     15.827692626400
      42   14  2   0.42380      2.167120344930     -1.610474349880     16.248903530300
      43   15  1  -0.84760     -6.732132106340    -14.281484634600     -5.621990592150
      44   15  2   0.42380     -6.481404709000    -15.069616315400     -5.059865849840
      45   15  2   0.42380     -7.297276947120    -14.585392994200     -6.388965831570
      46   16  1  -0.84760    -14.561528095100      8.716233811240      1.479965662050
      47   16  2   0.42380    -13.677158759800      9.097143901540      1.749777414900
      48   16  2   0.42380    -15.296392053300      9.267600679650      1.874895452470
      49   17  1  -0.84760      2.993057608170      0.005122578624     14.899670917200
      50   17  2   0.42380      3.840419818730      0.421533596229     15.229184420000
      51   17  2   0.42380      3.078760219620     -0.990840553146     14.926363660500
      52   18  1  -0.84760    -12.538171517300      6.919643914650      7.227724973230
      53   18  2   0.42380    -13.119543516200      6.118130457550      7.087786497470
      54   18  2   0.42380    -13.095074983400      7.681814690180      7.557807142390
      55   19  1  -0.84760     10.662444654800     -3.273737726310     13.082241430100
      56   19  2   0.42380     11.310236624400     -3.176808419130     12.326615680400
      57   19  2   0.42380     10.350494695000     -2.368898450900     13.371988057700
      58   20  1  -0.84760     -2.100273424840      0.006197336805     -3.175521731950
      59   20  2   0.42380     -2.229605424690      0.229529425891     -4.141645953670
      60   20  2   0.42380     -1.250485877250      0.419761132119     -2.848679092180
      61   21  1  -0.84760     -8.521757997680     16.313562225800     10.377239849100
      62   21  2   0.42380     -7.745754799170     15.686115588500     10.441503005400
      63   21  2   0.42380     -9.003474549560     16.338730861400     11.253205432600
      64   22  1  -0.84760      9.907394975370     -5.985273695060    -15.921945971300
      65   22  2   0.42380     10.038924285900     -6.935362797180    -15.639048925500
      66   22  2   0.42380     10.641341974700     -5.718878511680    -16.546730260800
      67   23  1  -0.84760    -17.520620088400     10.909712984900    -13.232954509900
      68   23  2   0.42380    -16.678039688100     11.436425716700    -13.120562485000
      69   23  2   0.42380    -18.282943273907     11.533323424800    -13.406082728800
      70   24  1  -0.84760    -12.766804813700    -14.011642185400    -17.059502409600
      71   24  2   0.42380    -13.233499532500    -13.165034996100    -17.315338893500
      72   24  2   0.42380    -12.361796989200    -14.428061968800    -17.873482278000
      73   25  1  -0.84760     -4.826160495060     -5.440858718640    -11.170590249500
      74   25  2   0.42380     -4.926637410260     -5.418295139580    -10.175906744800
      75   25  2   0.42380     -5.730713691350     -5.448879320310    -11.596875582400
      76   26  1  -0.84760      7.606914640210      7.232433065710      5.425130022390
      77   26  2   0.42380      8.149979408230      7.168066334060      4.587909871180
      78   26  2   0.42380      7.773821931480      8.115534880980      5.863619634560
      79   27  1  -0.84760      7.522108364760     -0.603866679972     -0.620124909502
      80   27  2   0.42380      7.340567533400      0.136615665153      0.026967682875
      81   27  2   0.42380      7.504780170130     -1.479707467840     -0.137835942198
      82   28  1  -0.84760     -8.003739695470      8.030057057060     -2.979243174190
      83   28  2   0.42380     -7.969793123310      8.866571721470     -2.432351186260
      84   28  2   0.42380     -8.783674262920      8.071525665380     -3.603728902630
      85   29  1  -0.84760      0.929562746061     14.436319552900     -0.502119106767
      86   29  2   0.42380      0.132733576543     14.678631482800     -1.055606417580
      87   29  2   0.42380      1.535518170450     13.843008491300     -1.032024766130
      88   30  1  -0.84760     -1.469097700630    -15.728344041600    -13.823464968900
      89   30  2   0.42380     -1.991975181360    -15.175924047600    -13.174287573700
      90   30  2   0.42380     -0.864915920539    -16.348236895400    -13.322768227900
      91   31  1  -0.84760     12.771213790000      1.393136175990      6.208672766870
      92   31  2   0.42380     11.779439093600      1.501105930200      6.139930612880
      93   31  2   0.42380     13.089056668600      0.770421957222      5.493688217200
      94   32  1  -0.84760      1.798601617550    -16.687188798700      6.996368716820
      95   32  2   0.42380      1.586958631760    -15.956554112800      6.347230671150
      96   32  2   0.42380      2.015136944550    -16.288791323800      7.887655373370
      97   33  1  -0.84760    -12.994277890200     -6.729648570720     -7.661734583010
      98   33  2   0.42380    -13.298043098700     -7.629048489260     -7.976069570930
      99   33  2   0.42380    -13.399584690600     -6.534284053710     -6.768672937290
     100   34  1  -0.84760     -8.250192532120     -7.107477412400    -10.675510341000
     101   34  2   0.42380     -7.425994640480     -6.972875225450    -10.125437539800
     102   34  2   0.42380     -8.702966634000     -7.954116512280    -10.395871561200
     103   35  1  -0.84760    -10.818115145500      8.736370960420      8.051210521370
     104   35  2   0.42380    -10.498214668200      8.172508734400      8.812605999890
     105   35  2   0.42380    -11.218397789600      8.149746181230      7.347189802040
     106   36  1  -0.84760      7.361492085730    -16.131683266400    -10.619302489400
     107   36  2   0.42380      7.222298273590    -15.242835639200    -10.182753547900
     108   36  2   0.42380      7.876387050000    -16.728353332000    -10.003779940100
     109   37  1  -0.84760     -1.260409255250     10.029222741800     15.577100719400
     110   37  2   0.42380     -0.550772669976     10.733773169000     15.572139641300
     111   37  2   0.42380     -1.767934249940     10.073384360100     16.437605298800
     112   38  1  -0.84760      8.666416151960      3.042043795950     -1.410409941300
     113   38  2   0.42380      8.144876787870      3.366891462070     -2.199378055690
     114   38  2   0.42380      9.100653512470      2.169499484750     -1.634249928180
     115   39  1  -0.84760    -16.113546698200     18.065512857700    -12.290382799400
     116   39  2   0.42380    -15.908307408900     17.962105066500    -13.263616411100
     117   39  2   0.42380    -16.284617027300     19.029423771607    -12.086395808100
     118   40  1  -0.84760      4.044368835290     15.380866845000    -17.014193528600
     119   40  2   0.42380      4.451937607160     15.256568340600    -17.918868927900
     120   40  2   0.42380      4.764956134480     15.378739122700    -16.320832571400
     121   41  1  -0.84760      6.111169382350     13.248210687000     16.019936373900
     122   41  2   0.42380      6.756613948320     12.554754587000     16.340123740300
     123   41  2   0.42380      5.204996825410     12.837979886700     15.917164843200
     124   42  1  -0.84760     14.137693502900    -14.016732967400    -11.378344741800
     125   42  2   0.42380     14.170390998000    -13.570321183400    -10.484114685900
     126   42  2   0.42380     13.257384398700    -14.478156614600    -11.488545009300
     127   43  1  -0.84760    -10.654679377600      1.332206112120     -8.969507597770
     128   43  2   0.42380    -10.814700566900      2.023205403590     -9.674428301240
     129   43  2   0.42380    -10.006417228600      0.651640085029     -9.310954619860
     130   44  1  -0.84760      4.070242905110      5.694571292550      9.660759996090
     131   44  2   0.42380      3.830309084010      4.925206829390      9.068721074790
     132   44  2   0.42380      3.470608393410      5.698990164120     10.461021782000
     133   45  1  -0.84760     -1.222357894410     11.017651481100      4.069339003770
     134   45  2   0.42380     -0.340803490072     11.150396541100      3.616304147220
     135   45  2   0.42380     -1.592549537370     10.122139041300      3.822325608110
     136   46  1  -0.84760      2.899886894070     -9.692476320490     11.629261025100
     137   46  2   0.42380      3.442623513770     -9.158489191780     12.277562427200
     138   46  2   0.42380      2.993738992840    -10.665867071800     11.838311805400
     139   47  1  -0.84760     10.399286711100    -12.137981459100    -17.577885552700
     140   47  2   0.42380     10.105734508600    -12.803753158800    -18.263870354407
     141   47  2   0.42380     10.543249757600    -12.601612775000    -16.703631216600
     142   48  1  -0.84760     -0.116911996031      5.090429752060     16.467127357700
     143   48  2   0.42380      0.327240701398      4.212526064040     16.288204201200
     144   48  2   0.42380     -1.101302225830      4.950354856900     16.573686727200
     145   49  1  -0.84760    -11.526125938300      2.361990157070     -4.764529241960
     146   49  2   0.42380    -10.922812014300      1.578260182320     -4.912108494560
     147   49  2   0.42380    -12.403987475900      2.044061499540     -4.406366583880
     148   50  1  -0.84760     12.038044171400     14.691186560300     17.967096422600
     149   50  2   0.42380     11.823009455000     15.149305235800     18.829585465907
     150   50  2   0.42380     13.005573546800     14.823368176100     17.751655182100
     151   51  1  -0.84760      8.543487837590     -2.631859701640     -2.368020416490
     152   51  2   0.42380      8.854181838530     -3.167472829000     -1.582789357780
     153   51  2   0.42380      8.864972284170     -1.689348394140     -2.276805363710
     154   52  1  -0.84760     -9.254804868580     -6.198975818090      4.469312596290
     155   52  2   0.42380     -9.956338930680     -6.014715115460      3.780910131740
     156   52  2   0.42380     -8.416578276430     -5.708724806700      4.230502784840
     157   53  1  -0.84760     -3.995058875550     -5.328826112170     -0.427833918867
     158   53  2   0.42380     -3.017487874700     -5.119128330020     -0.447373070643
     159   53  2   0.42380     -4.122622437950     -6.310361887580     -0.285303012960
     160   54  1  -0.84760    -14.907780588100     -4.711851316790     -2.797956280200
     161   54  2   0.42380    -14.640308428800     -5.674345291050     -2.752525085120
     162   54  2   0.42380    -14.489810859000     -4.287308363350     -3.601115409020
     163   55  1  -0.84760     -8.893009986330     -4.485832894880     17.296659889100
     164   55  2   0.42380     -9.077729813140     -4.074962271820     18.189444250900
     165   55  2   0.42380     -8.856415173630     -5.480903114200     17.388834062800
     166   56  1  -0.84760      2.818827758000     10.070347694000     11.501038717400
     167   56  2   0.42380      2.739070673720     11.038077488100     11.740073972300
     168   56  2   0.42380      2.038433464030      9.569226409430     11.875020273200
     169   57  1  -0.84760     -6.441165704090      1.313639794000     17.533245232000
     170   57  2   0.42380     -6.300115531540      2.265963251080     17.262718187300
     171   57  2   0.42380     -5.621330302230      0.781882489976     17.320868012300
     172   58  1  -0.84760     -9.840975527720     -1.146050023170      0.616243634605
     173   58  2   0.42380    -10.111221004800     -0.191049003609      0.494012563369
     174   58  2   0.42380     -9.922036003360     -1.629560784640     -0.255333408940
     175   59  1  -0.84760     -0.585472750013     11.499857531900     11.219591690100
     176   59  2   0.42380     -1.293278355200     11.256107395500     11.882612878500
     177   59  2   0.42380     -1.009779546360     11.692994985200     10.334910014700
     178   60  1  -0.84760     -9.199677260170    -17.852170391000     -0.282470088351
     179   60  2   0.42380     -8.291499056450    -17.627936550300     -0.635926641512
     180   60  2   0.42380     -9.291727614070    -17.498533818100      0.648372490531
     181   61  1  -0.84760    -10.271768737500    -17.503180166900      3.473057928470
     182   61  2   0.42380    -10.447259706800    -16.545545076200      3.701395294550
     183   61  2   0.42380    -10.721295714700    -18.093473738100      4.143489876190
     184   62  1  -0.84760     -5.689897428890     13.075374078700    -16.566869420000
     185   62  2   0.42380     -6.245626578220     13.207619531700    -15.746091586000
     186   62  2   0.42380     -6.086795883000     12.346082518000    -17.124189289100
     187   63  1  -0.84760    -10.701222791900      8.779140916290    -13.275614442200
     188   63  2   0.42380    -11.162920732400      7.892256399600    -13.292072442400
     189   63  2   0.42380    -10.089289067600      8.821747170310    -12.485853830300
     190   64  1  -0.84760     -8.053879378000     -0.173802420035    -12.805460350200
     191   64  2   0.42380     -8.936786219780      0.030398641481    -13.228281157600
     192   64  2   0.42380     -7.661653230620     -0.989728106291    -13.230223724100
     193   65  1  -0.84760      0.512770370464    -13.904478392300     12.600592543100
     194   65  2   0.42380     -0.470798721092    -14.045536802000     12.487923260800
     195   65  2   0.42380      0.670833361241    -13.092710820100     13.162775342400
     196   66  1  -0.84760    -15.649575431700    -17.072048469900      7.736095179800
     197   66  2   0.42380    -15.255694312600    -17.476328513200      6.910616342660
     198   66  2   0.42380    -15.253440474800    -16.166039415000      7.885174650020
     199   67  1  -0.84760    -12.395159075400     -5.884852169970     13.793261658400
     200   67  2   0.42380    -12.669728471100     -6.358769675620     14.629929958800
     201   67  2   0.42380    -12.991075698600     -5.095324282020     13.646533705000
     202   68  1  -0.84760     -1.227039807650    -12.699293765400      3.007587164120
     203   68  2   0.42380     -1.870753610580    -11.949384667600      3.160128584600
     204   68  2   0.42380     -0.325086041000    -12.439741167700      3.352713013460
     205   69  1  -0.84760     12.741839831300    -13.302299497300      3.253310302830
     206   69  2   0.42380     13.237048336100    -13.898464012500      3.885256825510
     207   69  2   0.42380     12.014674538600    -12.824627114900      3.746321187270
     208   70  1  -0.84760     10.988764125700     -1.221767114840     15.441342634200
     209   70  2   0.42380     10.660651979300     -2.020753180060     15.945290733700
     210   70  2   0.42380     10.295365036600     -0.501782658786     15.469979782700
     211   71  1  -0.84760     16.361205326800      5.867002455220    -16.624146730400
     212   71  2   0.42380     15.640034080500      5.314972598940    -16.205607519200
     213   71  2   0.42380     15.948573996400      6.581115789640    -17.189635484300
     214   72  1  -0.84760     -0.008927606749     -7.028734420200    -14.203511964800
     215   72  2   0.42380      0.821930368713     -6.555139581430    -13.911308348600
     216   72  2   0.42380     -0.069086268778     -7.912867978720    -13.740166752100
     217   73  1  -0.84760     13.397885220100     -7.708841943160      5.203936794840
     218   73  2   0.42380     12.962532339400     -8.250191183880      5.923248179990
     219   73  2   0.42380     13.970937097300     -7.002287508230      5.619138404350
     220   74  1  -0.84760     -2.939777873760      4.061529286300    -10.264122578200
     221   74  2   0.42380     -3.815789412660      3.740240071850    -10.623812756500
     222   74  2   0.42380     -3.001551009370      5.038446054190    -10.059628792600
     223   75  1  -0.84760      9.284129754190      5.187370962690    -15.467622658200
     224   75  2   0.42380      8.614911616870      4.535935101050    -15.110161607400
     225   75  2   0.42380      9.147313671480      5.299507092930    -16.451851720900
     226   76  1  -0.84760     -0.266560290892    -14.421209838900     -6.028938794200
     227   76  2   0.42380     -0.847975149765    -13.740660970300     -5.583057645000
     228   76  2   0.42380      0.690937190859    -14.143109744400     -5.952395278060
     229   77  1  -0.84760    -16.875158606500    -12.210860199200     16.897789137900
     230   77  2   0.42380    -17.140994464200    -11.762832670300     17.751371371800
     231   77  2   0.42380    -17.493246625600    -12.975724496600     16.716268320200
     232   78  1  -0.84760      6.261382017130     -4.758459189370     -6.707325973890
     233   78  2   0.42380      6.772114175550     -4.845663785280     -5.852020168450
     234   78  2   0.42380      5.599457965610     -4.013335154980     -6.625798534400
     235   79  1  -0.84760     14.047452665000      5.057366379620     15.865824942100
     236   79  2   0.42380     14.598772446800      4.819286187730     15.066222340500
     237   79  2   0.42380     13.380931384100      5.759093772520     15.614174295100
     238   80  1  -0.84760     16.359823513300    -16.440503500000    -17.447344557600
     239   80  2   0.42380     17.019016489600    -15.934231118100    -16.891329364200
     240   80  2   0.42380     15.436158468500    -16.276647828700    -17.100942762100
     241   81  1  -0.84760      8.964467986050     -5.683511503090     -3.752479204790
     242   81  2   0.42380      8.390291531050     -6.494250341910     -3.638356754080
     243   81  2   0.42380      8.440674972590     -4.966080369260     -4.211754119480
     244   82  1  -0.84760    -13.695318291300      6.118263612560      2.068286805310
     245   82  2   0.42380    -13.891211556400      6.551353782640      1.188480728240
     246   82  2   0.42380    -14.550200985000      5.810554050380      2.486007292460
     247   83  1  -0.84760     12.081760915800     12.399893386800      1.161164397700
     248   83  2   0.42380     13.074943583500     12.287408683000      1.130580414190
     249   83  2   0.42380     11.852615834200     13.182454700800      1.740034263380
     250   84  1  -0.84760     14.090639935800    -10.153473884900      1.236355573000
     251   84  2   0.42380     13.442105044000     -9.930504425640      0.508559506519
     252   84  2   0.42380     14.042535806100    -11.131862807700      1.437455320280
     253   85  1  -0.84760      7.837225774650     11.362057588700     -3.219065715260
     254   85  2   0.42380      7.298584022720     12.191962811300     -3.073730294230
     255   85  2   0.42380      7.264359561030     10.663784498800     -3.648296414540
     256   86  1  -0.84760      6.030059711740      7.809622644680      8.936407444450
     257   86  2   0.42380      5.704267227180      7.316577507090      8.129706911850
     258   86  2   0.42380      5.806804626430      7.286960423180      9.759196219960
     259   87  1  -0.84760     -2.799732790710     16.463343620700     -9.873654696280
     260   87  2   0.42380     -2.932937690270     15.608825411100    -10.375705574400
     261   87  2   0.42380     -3.156525491990     16.363320252700     -8.944841316650
     262   88  1  -0.84760     -0.058541083729      3.859219513340     -8.937803231860
     263   88  2   0.42380      0.433264599035      3.073812310380     -8.561953932370
     264   88  2   0.42380     -0.919902666034      3.550999472380     -9.341605944680
     265   89  1  -0.84760    -17.317660686300     15.327833130400     16.250635760300
     266   89  2   0.42380    -17.278376024200     14.560543399700     15.610539529600
     267   89  2   0.42380    -16.904245164900     16.134976533400     15.829201146800
     268   90  1  -0.84760    -15.787657492300     18.189786754500     -5.838955445890
     269   90  2   0.42380    -15.669304572500     18.089771042000     -4.851033665790
     270   90  2   0.42380    -14.987686102500     17.817871805700     -6.309832336550
     271   91  1  -0.84760     -9.318565438040     -8.700808394370    -14.871945336300
     272   91  2   0.42380     -9.059357009840     -7.867224722240    -14.384144913700
     273   91  2   0.42380     -9.262284874090     -8.541402512490    -15.857552896600
     274   92  1  -0.84760     -6.364657629560     -7.481749163810      5.581420187030
     275   92  2   0.42380     -7.226455628750     -7.980315854050      5.674883891100
     276   92  2   0.42380     -6.380476350570     -6.675103988430      6.172244466400
     277   93  1  -0.84760    -16.373073662600     -0.023429968974     -1.748112700000
     278   93  2   0.42380    -15.936342702000      0.860961737802     -1.583439153160
     279   93  2   0.42380    -17.048371293300      0.069400476031     -2.479792697290
     280   94  1  -0.84760    -16.684556409300     -2.290030895620      4.032845733940
     281   94  2   0.42380    -16.261661407200     -3.022568143230      3.499414390610
     282   94  2   0.42380    -17.447210798900     -2.661089488480      4.562632297370
     283   95  1  -0.84760     -3.880440916440    -10.850961367700     -1.429098963770
     284   95  2   0.42380     -3.494739109760    -11.606505778800     -1.958614552880
     285   95  2   0.42380     -4.444997248990    -10.280161905500     -2.025307082890
     286   96  1  -0.84760    -17.054447088200    -15.001839603700     -1.392270061670
     287   96  2   0.42380    -16.117441203500    -14.663577170500     -1.305100696410
     288   96  2   0.42380    -17.616334803400    -14.619826252300     -0.658548046967
     289   97  1  -0.84760    -16.780349597300    -14.734129516800     10.894542425600
     290   97  2   0.42380    -17.490652848000    -14.709511974200     11.598007612000
     291   97  2   0.42380    -16.020576312100    -15.303866365900     11.207822616500
     292   98  1  -0.84760      1.099932368990     13.729312598500      6.250458437860
     293   98  2   0.42380      1.604734750040     14.078634693600      7.039856075320
     294   98  2   0.42380      0.152506961013     13.548181532200      6.514232267340
     295   99  1  -0.84760    -14.330652673000     10.496032619400    -13.986766185800
     296   99  2   0.42380    -13.677091973200      9.783812186510    -13.730640305100
     297   99  2   0.42380    -14.307566670400     10.628876894400    -14.977634206800
     298  100  1  -0.84760     16.448609318600    -16.212290438700     -6.543195420430
     299  100  2   0.42380     16.723832510800    -17.096386574400     -6.920854284160
     300  100  2   0.42380     16.410863327300    -16.273104583400     -5.545760269680
     301  101  1  -0.84760     14.329632362900      8.760095152950    -14.166912386000
     302  101  2   0.42380     14.165000224200      7.913804750500    -14.673557048100
     303  101  2   0.42380     14.243540543900      8.583677825280    -13.186369105300
     304  102  1  -0.84760     17.141996467400    -10.247588049900      9.679461815070
     305  102  2   0.42380     17.632024974700     -9.435337145380      9.995880098500
     306  102  2   0.42380     17.636015879000    -11.068060536300      9.967159086680
     307  103  1  -0.84760     12.933419359600     17.566267055400      7.116749913940
     308  103  2   0.42380     12.719134128200     17.902979113800      6.199849249010
     309  103  2   0.42380     13.904231707100     17.712293571300      7.307011950400
     310  104  1  -0.84760     -5.458721814430    -15.565372528600    -15.130175092400
     311  104  2   0.42380     -4.870358140460    -15.203095395500    -15.853074439500
     312  104  2   0.42380     -5.948979526960    -14.812605600600    -14.690869586700
     313  105  1  -0.84760     15.189084350500     13.025238611400    -11.650070367600
     314  105  2   0.42380     15.560634217100     12.548362659400    -12.446650572700
     315  105  2   0.42380     14.331769117600     12.591933310500    -11.372118739400
     316  106  1  -0.84760      8.804443582110     17.731513725900    -16.945888208600
     317  106  2   0.42380      8.788686698460     17.579703082400    -15.957604216500
     318  106  2   0.42380      8.025320383690     17.267076872600    -17.366917246900
     319  107  1  -0.84760     -1.952487444760     16.654488965300     -3.784941603630
     320  107  2   0.42380     -2.407937107970     16.996453391100     -2.962976923270
     321  107  2   0.42380     -1.332290829020     17.354896254700     -4.138191921170
     322  108  1  -0.84760     16.827624282900     14.971309489100      4.276029317950
     323  108  2   0.42380     16.115162706300     14.744727099200      4.940151989280
     324  108  2   0.42380     17.486283170900     15.596870420400      4.694170431060
     325  109  1  -0.84760      0.001643284359      0.124640725452      6.754955271870
     326  109  2   0.42380     -0.482589732486     -0.059006762855      5.899506859960
     327  109  2   0.42380      0.687193881251     -0.586841602549      6.909270779980
     328  110  1  -0.84760      1.146388225860    -11.547268725500      0.491943343601
     329  110  2   0.42380      1.656322549800    -12.393785401500      0.644837105882
     330  110  2   0.42380      0.381653100350    -11.498151894400      1.134413362130
     331  111  1  -0.84760     -9.073617619110     -7.303356219000     -6.859212021270
     332  111  2   0.42380     -9.246818241260     -8.250557984220     -6.589378071510
     333  111  2   0.42380     -8.137612430860     -7.052327836840     -6.612475240640
     334  112  1  -0.84760     11.757184231100     -4.689197812230      1.351053161560
     335  112  2   0.42380     11.596431740800     -5.303862693970      2.123287400630
     336  112  2   0.42380     11.316957051600     -5.059471467420      0.533069389899
     337  113  1  -0.84760     -3.072349741870     17.462083309800    -13.044822784700
     338  113  2   0.42380     -2.473421469450     18.038399802200    -12.488815388200
     339  113  2   0.42380     -3.429225992360     16.714372424400    -12.484851558900
     340  114  1  -0.84760    -15.946779860000     -2.435352866400     15.966427555100