LAMMPS Atom File

         4500 atoms
         3000 bonds
         1500 angles
           0 dihedrals
           0 impropers

           2 atom types
           1 bond types
           1 angle types

         0.0  43.3716880522 xlo xhi
         0.0  43.3716880522 ylo yhi
         0.0  43.3716880522 zlo zhi

Masses

         1   15.9994
         2   1.00794

Atoms

       1    1  1  -0.84760    -16.310672512700      4.178351570800    -17.139883942100
       2    1  2   0.42380    -15.816005397100      4.395823338830    -16.298450358900
       3    1  2   0.42380    -16.363433830700      4.994132424280    -17.715833455800
       4    2  1  -0.84760     21.654978561200    -11.898763494100    -10.879658807900
       5    2  2   0.42380     21.362760239000    -11.192663244000    -11.524663373000
       6    2  2   0.42380     22.579852134923    -12.200028330800    -11.111711325000
       7    3  1  -0.84760    -10.171117947400     17.142469234000     -7.651742933520
       8    3  2   0.42380    -10.454187962400     16.928856558600     -6.716734381940
       9    3  2   0.42380     -9.977048435580     16.293585677400     -8.143407180650
      10    4  1  -0.84760    -20.922076890800    -11.183161035000      5.929640278670
      11    4  2   0.42380    -21.365443899700    -12.006922654600      6.282970845430
      12    4  2   0.42380    -20.600858475400    -10.623693739300      6.693718203140
      13    5  1  -0.84760      1.534741542660     10.326672532700    -11.601869122800
      14    5  2   0.42380      1.300876650340     11.273436482800    -11.823104822800
      15    5  2   0.42380      1.553631338480     10.211358171600    -10.608719701200
      16    6  1  -0.84760     -5.527852161060    -12.966732574500      4.967719878070
      17    6  2   0.42380     -5.830770468580    -12.153053473000      4.471567866310
      18    6  2   0.42380     -5.662154130070    -12.828073111800      5.948911263340
      19    7  1  -0.84760    -16.893723963500     -7.200719091400     20.129188176200
      20    7  2   0.42380    -16.537906303300     -6.401835017060     19.644236602800
      21    7  2   0.42380    -17.780300995600     -6.977215660820     20.534191117700
      22    8  1  -0.84760     21.130154428500     21.481986150000    -12.247103557500
      23    8  2   0.42380     20.707611050500     22.032980738523    -11.527477225800
      24    8  2   0.42380     20.795880577400     21.785884272123    -13.139239715200
      25    9  1  -0.84760    -13.651321711100      2.146169188860     18.075241395900
      26    9  2   0.42380    -14.301782674500      1.943405408030     17.343266407100
      27    9  2   0.42380    -13.890682190400      3.018439760840     18.501680852500
      28   10  1  -0.84760     -6.625122500630    -16.546787587900      0.935655962982
      29   10  2   0.42380     -7.250796015480    -16.424962393900      0.165142319413
      30   10  2   0.42380     -6.112491195430    -17.397229276500      0.817511647894
      31   11  1  -0.84760     -2.556932583940     10.148580974500     13.822858823300
      32   11  2   0.42380     -2.812962749290     10.966325022000     14.338361711000
      33   11  2   0.42380     -3.226357365790      9.988725640560     13.097381922500
      34   12  1  -0.84760    -11.912302990700     11.096973624700     17.543950694300
      35   12  2   0.42380    -11.488051845300     10.313787870200     17.998517564700
      36   12  2   0.42380    -11.209797144200     11.771648636500     17.317457506600
      37   13  1  -0.84760    -18.784799422800     13.611177366300     10.434413253000
      38   13  2   0.42380    -19.594263667700     13.381355750600      9.894089589700
      39   13  2   0.42380    -18.725253903000     14.603816368900     10.539874817500
      40   14  1  -0.84760      5.175977998600     -0.413655954842     17.656404955900
      41   14  2   0.42380      4.694695104170      0.428676340417     17.898980881900
      42   14  2   0.42380      4.602220912760     -1.201573409810     17.879986910800
      43   15  1  -0.84760     -9.916820853800    -17.093425921700     -5.235979198560
      44   15  2   0.42380     -9.777636389620    -16.585001472400     -6.085762855890
      45   15  2   0.42380    -10.896175713600    -17.226356510600     -5.083685019210
      46   16  1  -0.84760    -19.441401425500      8.334678353260     -0.152089534308
      47   16  2   0.42380    -18.572426794000      7.840682921560     -0.122907292160
      48   16  2   0.42380    -19.830441383600      8.270768599950     -1.071090869690
      49   17  1  -0.84760      1.915320794750      2.328744202380     16.279946059100
      50   17  2   0.42380      1.073768292490      1.793561826710     16.206671160900
      51   17  2   0.42380      2.063911725510      2.587204538760     17.234471590400
      52   18  1  -0.84760     -8.816278877800      8.108425919960      4.503662272870
      53   18  2   0.42380     -8.334949960560      7.424897902820      3.954925611790
      54   18  2   0.42380     -9.034916238860      8.900092945280      3.933170357610
      55   19  1  -0.84760     11.680692791900     -0.438824406083     16.803101999800
      56   19  2   0.42380     12.415449737900      0.198482432471     16.570782771400
      57   19  2   0.42380     10.869130246300      0.075128218729     17.080984949900
      58   20  1  -0.84760     -3.415112441350      1.564091695080     -7.150134240570
      59   20  2   0.42380     -3.095053707350      2.355808868020     -7.670467138680
      60   20  2   0.42380     -2.648243877030      0.945504970808     -6.979069721730
      61   21  1  -0.84760     -6.993191695710     19.132552249900     12.144792152800
      62   21  2   0.42380     -7.654831342390     19.611856167100     12.721420918100
      63   21  2   0.42380     -6.629291176730     18.343680711900     12.640027560200
      64   22  1  -0.84760      8.628701631390     -7.395038948410     21.659990087000
      65   22  2   0.42380      8.347607765310     -8.291633842060     22.002194463223
      66   22  2   0.42380      8.798379693080     -7.451988752830     20.676137417500
      67   23  1  -0.84760    -15.899702721400     11.002860469500    -15.947066799000
      68   23  2   0.42380    -16.084221611900     11.669454871800    -16.669288843700
      69   23  2   0.42380    -16.552767547900     10.248599967500    -16.014871131500
      70   24  1  -0.84760    -12.910174755200    -14.618769643000    -20.338806598300
      71   24  2   0.42380    -13.797540141100    -14.913139563400    -20.693671392000
      72   24  2   0.42380    -12.881817781500    -13.619965414100    -20.298982052200
      73   25  1  -0.84760     14.444641961800     -9.525681333400      8.490050752680
      74   25  2   0.42380     13.619253968500     -9.152859814640      8.066094651580
      75   25  2   0.42380     14.783829092600    -10.290938682000      7.942937162320
      76   26  1  -0.84760     -8.124098053550     -7.098778898440    -14.243879226500
      77   26  2   0.42380     -8.289794046000     -6.113142526350    -14.211232939000
      78   26  2   0.42380     -7.256929030090     -7.306166086020    -13.791100650200
      79   27  1  -0.84760     12.264648535900     10.821341459300      4.132570555040
      80   27  2   0.42380     13.093531588400     10.788118979300      3.574136000130
      81   27  2   0.42380     11.989727929600     11.773683346700      4.264720430540
      82   28  1  -0.84760      9.996877791620      0.433745869853      2.565160005900
      83   28  2   0.42380     10.300548524000      0.213370509965      3.492100557960
      84   28  2   0.42380      9.574509733820      1.340152233850      2.559439249110
      85   29  1  -0.84760     -8.523315115930      5.762465211520     -6.984809499350
      86   29  2   0.42380     -9.438474661620      6.164386290530     -7.015508883540
      87   29  2   0.42380     -8.064041082230      5.912034422340     -7.860421521390
      88   30  1  -0.84760     -0.294384339396     15.126772132500     -4.066921226630
      89   30  2   0.42380     -0.887287064070     14.887132599600     -3.298130453170
      90   30  2   0.42380     -0.807426691570     15.679100181900     -4.723976224860
      91   31  1  -0.84760     -0.125623114438    -18.397134469200    -14.420216858700
      92   31  2   0.42380      0.173873321031    -18.592219641000    -15.354156718100
      93   31  2   0.42380     -0.255108963432    -19.256408813100    -13.925362317700
      94   32  1  -0.84760     14.735616103600      2.450346040090      8.135145950910
      95   32  2   0.42380     15.727766954300      2.427937423580      8.258168482830
      96   32  2   0.42380     14.500840493800      3.133489657800      7.443629349070
      97   33  1  -0.84760      3.228334591980    -20.080135065100      7.850854816720
      98   33  2   0.42380      3.347249463150    -20.422655196600      8.782809329000
      99   33  2   0.42380      2.362254870050    -19.584468858300      7.785886157970
     100   34  1  -0.84760    -18.842998537100    -11.667712053200    -13.424552804500
     101   34  2   0.42380    -18.430722760200    -10.921558312600    -12.901787771900
     102   34  2   0.42380    -18.256273931900    -11.893825178300    -14.202130512700
     103   35  1  -0.84760     -7.501841296930     -8.734608395830    -11.145490093500
     104   35  2   0.42380     -6.621843558180     -9.118785327200    -10.866183693300
     105   35  2   0.42380     -8.235822794490     -9.168232690450    -10.622765374000
     106   36  1  -0.84760    -16.827444203100     12.014034014700     12.323333661000
     107   36  2   0.42380    -16.280700186000     11.591599348500     11.600409091900
     108   36  2   0.42380    -17.507782663400     12.622267827500     11.914443445400
     109   37  1  -0.84760     10.589856913400    -18.189709591800    -14.695164390100
     110   37  2   0.42380     10.754631003100    -17.634360539800    -13.880034382200
     111   37  2   0.42380     10.912653786500    -17.698344936900    -15.504091429200
     112   38  1  -0.84760      0.079496848420      5.600372817650     20.833187415800
     113   38  2   0.42380      0.491476485713      5.324943587330     19.964618755600
     114   38  2   0.42380      0.483091529634      6.464302738980     21.134412289100
     115   39  1  -0.84760     10.594609245900      4.511516930120     -2.358454653410
     116   39  2   0.42380     10.785498124100      5.488246064700     -2.456238260660
     117   39  2   0.42380     10.071752363300      4.356360990720     -1.520273697530
     118   40  1  -0.84760    -20.181469992800    -17.995911542100    -13.582759008000
     119   40  2   0.42380    -20.877831500700    -17.935231146600    -12.867637661700
     120   40  2   0.42380    -19.603861368500    -17.180048803200    -13.555624744200
     121   41  1  -0.84760      6.914722000650     16.863466979000    -21.051880020200
     122   41  2   0.42380      6.436061379200     16.906924209600    -20.174956147400
     123   41  2   0.42380      7.403081005910     17.722039033100    -21.207955354200
     124   42  1  -0.84760      7.444970306290     14.975547337700     19.511950804600
     125   42  2   0.42380      7.019950691960     15.365250514100     20.328951270800
     126   42  2   0.42380      8.407868081390     14.780156771200     19.698096987100
     127   43  1  -0.84760     18.319502217600    -18.111311516000    -14.736859684200
     128   43  2   0.42380     18.657407690200    -18.905967374600    -15.241182951600
     129   43  2   0.42380     18.687702096800    -18.125292229700    -13.807218146500
     130   44  1  -0.84760    -12.670684126100      1.584276939670    -10.666655796000
     131   44  2   0.42380    -12.031186682900      1.479599416270     -9.905022264570
     132   44  2   0.42380    -13.561142763600      1.875102926690    -10.316650567200
     133   45  1  -0.84760     -7.734550598340      1.770265896250    -13.695831048300
     134   45  2   0.42380     -8.652930192720      1.785199072000    -13.300412383000
     135   45  2   0.42380     -7.695205613760      2.400558348300    -14.471191220800
     136   46  1  -0.84760      4.903873758810     11.674255342900     13.813106475700
     137   46  2   0.42380      4.049562814000     11.604123339400     13.298097435300
     138   46  2   0.42380      4.910445826040     10.990245157800     14.542549327900
     139   47  1  -0.84760     -0.118854007631     12.794491763700      6.218442285540
     140   47  2   0.42380     -0.342856049339     12.952539515700      5.256754189840
     141   47  2   0.42380      0.071689095879     11.823223411100      6.361029496800
     142   48  1  -0.84760      7.144123950220    -14.772540117700      9.569191640230
     143   48  2   0.42380      6.441029249090    -15.446338505100      9.341917413080
     144   48  2   0.42380      7.031926329880    -14.481233306200     10.519219027000
     145   49  1  -0.84760     14.080895663100    -12.876344277700    -17.721506229500
     146   49  2   0.42380     14.448899121700    -12.012029626400    -17.378674436800
     147   49  2   0.42380     14.273743132300    -12.956177009800    -18.699481990100
     148   50  1  -0.84760     -6.220332430610      2.551501967040    -20.286135978000
     149   50  2   0.42380     -7.139401498910      2.528368389870    -20.679552913700
     150   50  2   0.42380     -5.591270830050      2.048599501040    -20.878901203300
     151   51  1  -0.84760    -16.852759591700      4.968415513500     -7.238412328500
     152   51  2   0.42380    -16.404391462200      4.169707443770     -6.837125099920
     153   51  2   0.42380    -16.244709912300      5.759660062520     -7.173545919590
     154   52  1  -0.84760     10.642150806500     16.555654259000     17.123295770300
     155   52  2   0.42380     10.461782258100     17.452243926000     17.527763514100
     156   52  2   0.42380     10.013538248900     15.882066632900     17.512044998600
     157   53  1  -0.84760     10.589065134200     -3.124940147400     -2.694193021100
     158   53  2   0.42380     10.311269515500     -3.079659091560     -1.734620605800
     159   53  2   0.42380     10.827861582700     -2.208623145390     -3.015657495100
     160   54  1  -0.84760    -10.526114098700     -7.557953968270      5.686308105050
     161   54  2   0.42380    -10.467816301200     -6.908616349950      6.444570608570
     162   54  2   0.42380    -11.409327170800     -7.457135069150      5.228301315900
     163   55  1  -0.84760     -7.273257875920     -6.972749180000     -1.221528909880
     164   55  2   0.42380     -7.060252486800     -7.763971427850     -1.794761898030
     165   55  2   0.42380     -7.311326867760     -7.256004937010     -0.263240368789
     166   56  1  -0.84760     19.135277868900     -5.154631228050     -7.594782649250
     167   56  2   0.42380     18.745260503800     -6.011505711810     -7.257658674920
     168   56  2   0.42380     20.093399266200     -5.091823634120     -7.315392967770
     169   57  1  -0.84760     -8.121906516690     -4.757391825890     18.832052718400
     170   57  2   0.42380     -7.206657986270     -4.783280202340     19.234109828200
     171   57  2   0.42380     -8.736844042220     -4.249827386900     19.435567573200
     172   58  1  -0.84760      6.203032987640      8.575866920160      9.576571351100
     173   58  2   0.42380      6.527843679830      8.412043273700     10.508053947300
     174   58  2   0.42380      6.247345175850      9.554418242060      9.375390486260
     175   59  1  -0.84760     -9.706040156720      5.502793066570     19.399280704100
     176   59  2   0.42380    -10.085427719100      5.465465390200     18.474796133100
     177   59  2   0.42380    -10.447082786100      5.430572335330     20.066843425900
     178   60  1  -0.84760    -16.563538234900      1.652086239850     -0.364103044476
     179   60  2   0.42380    -16.306162075900      1.963513805610      0.550648497791
     180   60  2   0.42380    -17.497041619900      1.948018361880     -0.566576769631
     181   61  1  -0.84760     -2.725224278330     19.201922463800     12.120285181700
     182   61  2   0.42380     -2.668693246550     20.123662063800     12.503952162500
     183   61  2   0.42380     -1.802969514090     18.837826467900     11.990361143900
     184   62  1  -0.84760    -12.250661103600     20.628674575100     -2.511123062950
     185   62  2   0.42380    -11.636610607900     21.376589582700     -2.259001802230
     186   62  2   0.42380    -12.422991136200     20.656427524100     -3.495771291350
     187   63  1  -0.84760    -12.979985946100    -20.406169762300      4.843501574980
     188   63  2   0.42380    -12.628076928200    -19.796036482400      5.553358901400
     189   63  2   0.42380    -13.254333963800    -19.867460805800      4.046930281630
     190   64  1  -0.84760     -9.604594134160     16.967468316900    -18.425499036800
     191   64  2   0.42380     -9.166708729950     17.481900386200    -19.162802243700
     192   64  2   0.42380    -10.598068992100     17.020395870000    -18.526525671200
     193   65  1  -0.84760    -12.665925671400     10.206864654600    -15.500274223200
     194   65  2   0.42380    -12.801280404000     10.996988217200    -14.902458321500
     195   65  2   0.42380    -13.530609196600      9.973403703480    -15.945042011600
     196   66  1  -0.84760    -10.420021483700     -5.432252676400    -12.883919745300
     197   66  2   0.42380     -9.897064732720     -4.586448718290    -12.989427570100
     198   66  2   0.42380     -9.843695468520     -6.212847454970    -13.125829058700
     199   67  1  -0.84760     -2.434706199780     21.254324634700     15.873224819500
     200   67  2   0.42380     -1.455711587740     21.068286880300     15.956648458200
     201   67  2   0.42380     -2.896833860360     20.448279749900     15.503455068200
     202   68  1  -0.84760    -21.482343216900    -16.469256908400     10.319332122400
     203   68  2   0.42380    -22.178171957023    -15.755061579900     10.243520533100
     204   68  2   0.42380    -21.042796170200    -16.412555530100     11.215760227400
     205   69  1  -0.84760    -13.069214278800     -3.721338494510     11.441186119400
     206   69  2   0.42380    -12.872583688300     -3.825567824050     12.416107992100
     207   69  2   0.42380    -12.213441806000     -3.743643672120     10.924314806900
     208   70  1  -0.84760     -3.836847027030    -15.953532414300      7.988604345030
     209   70  2   0.42380     -2.911787346150    -15.668434775200      8.239570324700
     210   70  2   0.42380     -4.262744066300    -15.245206073100      7.425678500730
     211   71  1  -0.84760     17.172222437400    -13.992587610100      4.643674108940
     212   71  2   0.42380     17.960143397600    -13.390774310700      4.774063192710
     213   71  2   0.42380     16.730348907700    -13.779136247700      3.772361134390
     214   72  1  -0.84760     13.078308808000      1.683142829580     19.214875018000
     215   72  2   0.42380     13.964721518700      1.384653768290     18.861071701600
     216   72  2   0.42380     12.361058652300      1.076786152410     18.871532923100
     217   73  1  -0.84760     -2.799316003360     -9.804852743720      6.647850125640
     218   73  2   0.42380     -3.693495706490    -10.098323233400      6.309741074910
     219   73  2   0.42380     -2.082976664020    -10.159222677400      6.046784487790
     220   74  1  -0.84760     17.132297681200      7.694877292980    -17.991738554500
     221   74  2   0.42380     17.294133456500      7.904516068610    -17.027445670800
     222   74  2   0.42380     16.201293953700      7.962982094260    -18.239431660800
     223   75  1  -0.84760      1.496941588030    -11.432117244200    -13.560338424000
     224   75  2   0.42380      2.310300139160    -11.482231207200    -14.139938681100
     225   75  2   0.42380      1.745228514840    -11.050946682300    -12.669797799000
     226   76  1  -0.84760     14.195829920700    -12.719580952800     -0.495217932974
     227   76  2   0.42380     13.704449132000    -12.838490269200     -1.358007301820
     228   76  2   0.42380     13.836835260400    -11.919429773600     -0.014717231326
     229   77  1  -0.84760     -2.046109641190      7.152343626680    -12.107461617800
     230   77  2   0.42380     -2.223587605190      7.094793086190    -11.125021030500
     231   77  2   0.42380     -2.649211469480      6.519297132870    -12.592765977300
     232   78  1  -0.84760     11.623649333800      4.691674767820    -19.595881916300
     233   78  2   0.42380     10.944533411600      5.422680876090    -19.662452434300
     234   78  2   0.42380     11.250371817900      3.852842649040    -19.992145178000
     235   79  1  -0.84760     -0.946812159764    -17.070648276200     -5.522893685960
     236   79  2   0.42380     -1.620666897160    -16.342742929200     -5.649675383030
     237   79  2   0.42380     -1.416042668070    -17.951103808200     -5.454917320240
     238   80  1  -0.84760    -21.458822290900    -11.921101045300     20.118512075200
     239   80  2   0.42380    -21.283376516200    -11.026929471800     19.706594635200
     240   80  2   0.42380    -20.766753725800    -12.108534303100     20.815584435200
     241   81  1  -0.84760      7.398515431050     -7.758001279820     -8.773943286260
     242   81  2   0.42380      7.367148391460     -7.161422680150     -7.972001839990
     243   81  2   0.42380      6.717175896140     -8.483459698020     -8.676544509990
     244   82  1  -0.84760     16.845865565700      5.620851572940     18.334266517400
     245   82  2   0.42380     17.675984880800      5.864810447040     17.832882442600
     246   82  2   0.42380     17.074314982600      5.445285914000     19.291861193300
     247   83  1  -0.84760     18.207367461200    -20.854492843400    -20.633232801200
     248   83  2   0.42380     18.550413692500    -19.932941125800    -20.815061607800
     249   83  2   0.42380     18.972058258200    -21.454422591500    -20.398004651700
     250   84  1  -0.84760     12.444198612800     -7.961520574790    -11.903196788900
     251   84  2   0.42380     11.803374192800     -7.865744958850    -12.664886419900
     252   84  2   0.42380     12.761604852300     -7.056854507570    -11.618886068000
     253   85  1  -0.84760    -16.326740039400      6.957053677970      2.904691131860
     254   85  2   0.42380    -16.471859561200      7.757149017260      2.322636347110
     255   85  2   0.42380    -15.380991727500      6.948272117160      3.229472619610
     256   86  1  -0.84760      8.705625536400     15.296661944500     -3.790357626460
     257   86  2   0.42380      8.447446200680     16.248245314800     -3.623526814370
     258   86  2   0.42380      9.685753004700     15.245934989400     -3.982130726510
     259   87  1  -0.84760    -20.546272283800    -15.407347919800      3.538219380360
     260   87  2   0.42380    -19.748290440600    -14.869925502300      3.265451854690
     261   87  2   0.42380    -21.357006449800    -14.821944267600      3.541779736080
     262   88  1  -0.84760     10.094457091800     13.827352436100     -5.999843068850
     263   88  2   0.42380      9.180711822270     14.020241616900     -5.642263222740
     264   88  2   0.42380     10.089999124600     12.942766825200     -6.466199610060
     265   89  1  -0.84760      8.337756948060     10.247373262100     13.471805079100
     266   89  2   0.42380      9.081323356600     10.907020216700     13.581234925300
     267   89  2   0.42380      8.552695519960      9.624600315180     12.719505094400
     268   90  1  -0.84760     -4.208199048030     18.491988977000    -14.570668934800
     269   90  2   0.42380     -3.500390110640     18.029697859700    -14.036540269500
     270   90  2   0.42380     -3.844327104960     18.729494728200    -15.471328819100
     271   91  1  -0.84760     -0.439392452146      5.230580958880     -9.745086993390
     272   91  2   0.42380     -0.574300523111      5.829908513760     -8.956032943060
     273   91  2   0.42380      0.243392606799      4.534768842420     -9.522264055010
     274   92  1  -0.84760     12.375810112100     17.656212860900     20.488342230100
     275   92  2   0.42380     11.766980175400     16.992303393700     20.922566052000
     276   92  2   0.42380     12.621036516200     18.365574216400     21.149152700800
     277   93  1  -0.84760    -19.197098563200     18.923142709000     -3.540342375710
     278   93  2   0.42380    -19.598659450800     18.159261676700     -4.045549879750
     279   93  2   0.42380    -18.276085997600     19.103625478800     -3.885540613890
     280   94  1  -0.84760    -10.226851806800     -7.902422730680    -19.717004355800
     281   94  2   0.42380     -9.546933867520     -7.617349595320    -19.041397293000
     282   94  2   0.42380    -10.040865285100     -8.843162278180    -20.000585239300
     283   95  1  -0.84760     -0.122683814755    -17.027746326300      5.190699556470
     284   95  2   0.42380     -0.306283015533    -17.368076306300      4.268491966960
     285   95  2   0.42380     -0.972372654314    -17.018568784900      5.717904117020
     286   96  1  -0.84760     -8.493594087430    -10.841582626100      5.222897738250
     287   96  2   0.42380     -8.123005577140    -11.247344281300      4.387420847390
     288   96  2   0.42380     -7.783415422830    -10.301563617300      5.674589817560
     289   97  1  -0.84760    -18.104220693400      2.650104937560     -5.207501371470
     290   97  2   0.42380    -17.503892154500      2.231446815630     -4.526082981380
     291   97  2   0.42380    -19.040120726200      2.676032984000     -4.856191159710
     292   98  1  -0.84760    -17.589171736100     -8.025983770710      9.097151567950
     293   98  2   0.42380    -17.095122305000     -7.423967025230      8.469862959910
     294   98  2   0.42380    -17.433008667400     -8.978846671110      8.837025850260
     295   99  1  -0.84760     -2.621565150580    -10.174097061400     -0.183395933032
     296   99  2   0.42380     -1.877721523150     -9.507219106450     -0.227785696912
     297   99  2   0.42380     -2.665171790640    -10.564043716300      0.736408430574
     298  100  1  -0.84760    -19.098273894200    -18.927385050800     -1.461630347840
     299  100  2   0.42380    -19.721098760400    -18.499764044100     -2.116786406180
     300  100  2   0.42380    -19.288956454600    -19.907755575800     -1.411492588310
     301  101  1  -0.84760     -0.165684071771     17.044120337200      5.356697050980
     302  101  2   0.42380      0.443806948578     17.827722308500      5.477065845090
     303  101  2   0.42380     -0.260002911348     16.841857163000      4.381918324870
     304  102  1  -0.84760    -15.093142903500     15.350257347900    -12.630994234100
     305  102  2   0.42380    -15.774241804900     16.061878360400    -12.803330594600
     306  102  2   0.42380    -15.496172507000     14.452761035700    -12.810068264300
     307  103  1  -0.84760     16.209460263400     18.961195776200    -10.356236731100
     308  103  2   0.42380     16.638335328300     19.629300919700     -9.748205731900
     309  103  2   0.42380     15.501147491300     18.462402895300     -9.856738303770
     310  104  1  -0.84760    -13.844790022300    -13.167017184700     18.199501552700
     311  104  2   0.42380    -14.445835335400    -12.931825612800     17.435676012300
     312  104  2   0.42380    -13.357003370600    -12.348867380000     18.503960219000
     313  105  1  -0.84760     16.518746134400     -9.568250155160     12.362684703500
     314  105  2   0.42380     16.045619547100     -8.793079694420     11.944041670400
     315  105  2   0.42380     16.162128123400     -9.717854027870     13.284878975600
     316  106  1  -0.84760     17.014760853600     19.017907739400     11.140006993700
     317  106  2   0.42380     17.193287571700     18.959707904100     10.157794699800
     318  106  2   0.42380     17.342853281300     18.186388920900     11.588261177500
     319  107  1  -0.84760     -4.663658697130      9.013829990620     -3.622815124400
     320  107  2   0.42380     -4.840106066510      8.641194747380     -4.533863587070
     321  107  2   0.42380     -5.415509613590      9.617813654900     -3.358383786040
     322  108  1  -0.84760     18.868467654200     18.497111553900    -12.491533107200
     323  108  2   0.42380     17.915015600700     18.201912376000    -12.429997530400
     324  108  2   0.42380     19.123392437400     18.602486384000    -13.452735219200
     325  109  1  -0.84760     16.465855712700     20.327458493700     19.679837628000
     326  109  2   0.42380     17.273222943000     19.818599161500     19.381139895200
     327  109  2   0.42380     16.270786641900     20.111402424600     20.636533939600
     328  110  1  -0.84760    -14.295701011100     10.645672594900     -0.398532374525
     329  110  2   0.42380    -13.942772912900     11.211283701700      0.346803679385
     330  110  2   0.42380    -15.263349789800     10.450107681800     -0.239126584338
     331  111  1  -0.84760     18.018980647000     18.511643794400      6.928944484610
     332  111  2   0.42380     18.419146802600     17.595269925000      6.940168543570
     333  111  2   0.42380     18.557686753600     19.117785949000      7.514083287840
     334  112  1  -0.84760      1.680317538270     -0.117779345540      2.425004898540
     335  112  2   0.42380      1.128677137820      0.051991183661      3.241626497570
     336  112  2   0.42380      1.999470563430     -1.065472088710      2.429455862810
     337  113  1  -0.84760      1.251296799130    -12.107481286300      1.504015899700
     338  113  2   0.42380      2.011032810580    -12.751747725400      1.416141282880
     339  113  2   0.42380      1.288277284910    -11.444530671000      0.756266660082
     340  114  1  -0.84760    -12.921030219300    -11.021600436200    -10.851638139700