LAMMPS Atom File

         4500 atoms
         3000 bonds
         1500 angles
           0 dihedrals
           0 impropers

           2 atom types
           1 bond types
           1 angle types

         0.0  41.0225610273 xlo xhi
         0.0  41.0225610273 ylo yhi
         0.0  41.0225610273 zlo zhi

Masses

         1   15.9994
         2   1.00794

Atoms

       1    1  1  -0.84760    -15.750672554300      6.211603234220    -16.982588758100
       2    1  2   0.42380    -16.023610835400      5.549517117880    -16.284629827200
       3    1  2   0.42380    -16.146718184400      7.104427183130    -16.768081753200
       4    2  1  -0.84760    -17.769541530500    -12.685828284900    -12.003403057900
       5    2  2   0.42380    -17.263128700700    -12.029593136000    -11.444027088600
       6    2  2   0.42380    -17.140461629500    -13.378529943100    -12.356139348800
       7    3  1  -0.84760     -6.433202239440     15.835804545200     -5.305962238720
       8    3  2   0.42380     -5.553910297810     15.438655372600     -5.568865673600
       9    3  2   0.42380     -6.675507066100     15.529256022300     -4.385464344050
      10    4  1  -0.84760     17.839607703200    -12.917105569100      7.152839879640
      11    4  2   0.42380     17.424170666100    -12.364031873800      6.430675386090
      12    4  2   0.42380     17.621628254200    -13.881237455700      7.001397926730
      13    5  1  -0.84760      2.216043921470     11.360559216100    -12.284676190500
      14    5  2   0.42380      1.614999940580     12.149346267500    -12.155986173400
      15    5  2   0.42380      1.985742842530     10.902592059800    -13.143295720300
      16    6  1  -0.84760     -3.820440489100    -14.755113514700      5.284178664470
      17    6  2   0.42380     -3.110407569920    -14.929522512500      4.601950876140
      18    6  2   0.42380     -4.355583556930    -13.955605207400      5.011399699910
      19    7  1  -0.84760    -15.802266568000     -7.238150458380     18.044531009300
      20    7  2   0.42380    -15.963967275100     -7.906391928760     17.318372473900
      21    7  2   0.42380    -16.067156253200     -6.328274758180     17.725219774200
      22    8  1  -0.84760     19.157215716200     19.271850637800    -14.456836295200
      23    8  2   0.42380     19.862441260200     18.757472362500    -14.944762439200
      24    8  2   0.42380     19.544323466200     20.129513542700    -14.118366309000
      25    9  1  -0.84760    -10.386820571700     -0.615312277231     14.884510944600
      26    9  2   0.42380     -9.847496430890     -1.344893895930     15.305034585800
      27    9  2   0.42380    -11.090436411000     -1.016596756710     14.298084890300
      28   10  1  -0.84760    -10.974170774800    -18.469198441700      1.355096066540
      29   10  2   0.42380    -10.361336339600    -18.051303475500      2.025765696290
      30   10  2   0.42380    -11.913436726500    -18.437861352800      1.696852498560
      31   11  1  -0.84760      1.262310739710      6.453987657010     13.159849425100
      32   11  2   0.42380      0.475781525543      5.858146005550     12.997539469600
      33   11  2   0.42380      0.987417411675      7.216833772690     13.745083961000
      34   12  1  -0.84760    -15.251141700100     12.636834764300     16.148095415400
      35   12  2   0.42380    -16.097400762300     12.109273991600     16.222427310900
      36   12  2   0.42380    -15.466831351000     13.613247983900     16.138338409700
      37   13  1  -0.84760    -16.781203955100     12.196270892300     10.810419914400
      38   13  2   0.42380    -16.548282258200     12.605563473500     11.692591703900
      39   13  2   0.42380    -17.107661240600     12.908084091900     10.188529562600
      40   14  1  -0.84760      5.550658499380     -0.589499851047     14.945616932100
      41   14  2   0.42380      5.837345931530     -0.051826197039     15.738533925200
      42   14  2   0.42380      4.584069704140     -0.828949741271     15.037103821800
      43   15  1  -0.84760     -9.350075550970    -16.120519770400     -4.035804968330
      44   15  2   0.42380    -10.266329876600    -16.235640567800     -4.419504346540
      45   15  2   0.42380     -9.415102858470    -16.014909953800     -3.043525765730
      46   16  1  -0.84760    -19.318024444900      8.547753399830     -1.016765798240
      47   16  2   0.42380    -20.168490021500      8.183038097460     -1.395831823100
      48   16  2   0.42380    -19.364041419500      9.546459481580     -0.995118619914
      49   17  1  -0.84760      1.811581880210      2.202613166540     15.398180488800
      50   17  2   0.42380      2.061936691410      1.407468748800     14.845851036900
      51   17  2   0.42380      1.792002427040      3.017765352410     14.819264640900
      52   18  1  -0.84760     -8.087889842180      6.507897180070      2.796846118980
      53   18  2   0.42380     -8.793892853620      6.576865097260      2.092003459780
      54   18  2   0.42380     -7.199405406180      6.353523223380      2.364684009950
      55   19  1  -0.84760      9.856014937890     -1.875475282020     15.887990424900
      56   19  2   0.42380      9.499922043810     -2.108878959090     16.792822218300
      57   19  2   0.42380     10.567968196300     -2.529070192020     15.631209873700
      58   20  1  -0.84760     -5.371181701170      0.945158731599     -5.331690407170
      59   20  2   0.42380     -6.164897632200      1.404657248340     -4.933097715380
      60   20  2   0.42380     -4.533125693300      1.354878349080     -4.971423890940
      61   21  1  -0.84760     -7.896762908550     19.889815463900     14.034020490900
      62   21  2   0.42380     -7.960296788160     18.902554125100     13.888148989400
      63   21  2   0.42380     -7.467219556910     20.069011724400     14.919108740300
      64   22  1  -0.84760     10.529107818100     -6.971993282560    -19.754717295400
      65   22  2   0.42380      9.732427439310     -6.803837247260    -19.174179680900
      66   22  2   0.42380     10.914848596400     -7.869178714200    -19.539630445200
      67   23  1  -0.84760    -20.376938669700     10.745637153700    -16.866176153500
      68   23  2   0.42380    -20.788030817555      9.988881642640    -17.374432331400
      69   23  2   0.42380    -20.586426445555     11.608642663900    -17.325889500200
      70   24  1  -0.84760    -14.466908442400    -15.796691952900    -18.423653143200
      71   24  2   0.42380    -14.346278208900    -15.349473639000    -17.537400286200
      72   24  2   0.42380    -15.269062704900    -15.415241817200    -18.883048760300
      73   25  1  -0.84760     14.159747525300    -10.682197983400      6.521622827720
      74   25  2   0.42380     14.142326812300    -10.663580612800      7.521297731010
      75   25  2   0.42380     14.888537819800    -11.293074789000      6.212277979580
      76   26  1  -0.84760     -7.771178094580     -7.553206109670    -11.696512744100
      77   26  2   0.42380     -8.618322105730     -8.042755024460    -11.903125629500
      78   26  2   0.42380     -7.006797340730     -7.998126069750    -12.163169247600
      79   27  1  -0.84760     10.803572786100      7.924303013990      4.958911768090
      80   27  2   0.42380     11.323377586300      7.074365514030      5.044988570220
      81   27  2   0.42380     10.314148571700      7.928828388530      4.086877675080
      82   28  1  -0.84760      9.313025948600     -0.224371448721     -1.469890864930
      83   28  2   0.42380      9.613282999310     -1.116233331630     -1.808163070860
      84   28  2   0.42380      9.600284971980     -0.114853776340     -0.518319463026
      85   29  1  -0.84760    -10.956789082200      7.064715898330     -2.204944998800
      86   29  2   0.42380    -11.586888209600      7.803813524980     -2.443083168600
      87   29  2   0.42380    -10.018598655300      7.410722289830     -2.213793723040
      88   30  1  -0.84760      1.608579349610     17.419753684000      0.610245290917
      89   30  2   0.42380      0.648258399380     17.627231814700      0.423867991292
      90   30  2   0.42380      1.807870945130     17.600808263700      1.573314394930
      91   31  1  -0.84760     -3.718000486730    -18.330044290700    -17.138680036700
      92   31  2   0.42380     -3.030572362720    -18.352200474700    -16.412765663100
      93   31  2   0.42380     -4.625579699720    -18.214989735300    -16.734870154000
      94   32  1  -0.84760     13.816983419500      1.231287802160      6.284093564180
      95   32  2   0.42380     14.809134270200      1.208879185660      6.407116096110
      96   32  2   0.42380     13.582207809600      1.914431419880      5.592576962350
      97   33  1  -0.84760      3.980149354290    -17.944628257400      7.668408813240
      98   33  2   0.42380      3.123619632650    -18.229507739400      8.098758109310
      99   33  2   0.42380      3.928224947050    -16.974121271100      7.432994188490
     100   34  1  -0.84760    -15.765440197800     -8.804370274600    -10.622555937800
     101   34  2   0.42380    -14.806508728400     -8.599306876370    -10.426598188000
     102   34  2   0.42380    -16.211759450100     -7.989420999870    -10.992227149400
     103   35  1  -0.84760     -7.949204490370    -11.362933022700     -8.932405867520
     104   35  2   0.42380     -8.147898940630    -11.424569321000     -7.954284462910
     105   35  2   0.42380     -6.958959272520    -11.353819808800     -9.071443120950
     106   36  1  -0.84760    -13.505455882500     11.403950146300     10.652121997100
     107   36  2   0.42380    -14.503065536100     11.401047071000     10.721162212500
     108   36  2   0.42380    -13.235271777600     11.716739303300      9.741537847950
     109   37  1  -0.84760     13.356069451600    -16.542356568800    -14.862352618300
     110   37  2   0.42380     13.709205198800    -16.340181446100    -13.948886492000
     111   37  2   0.42380     12.574783030500    -17.162089773800    -14.788040554300
     112   38  1  -0.84760     -2.316385618590      8.231354115360     19.522606697600
     113   38  2   0.42380     -2.795046240050      8.274811345930     20.399530570400
     114   38  2   0.42380     -1.828026613340      9.089926169470     19.366531363600
     115   39  1  -0.84760      8.577899167280      6.227859401360     -2.126406418190
     116   39  2   0.42380      9.242628067580      6.838336763680     -1.695764015270
     117   39  2   0.42380      8.695072851530      6.254590869850     -3.119158026760
     118   40  1  -0.84760    -19.958344786400    -19.997058080500    -13.083158273800
     119   40  2   0.42380    -19.479151593200    -20.494635563500    -12.360115721800
     120   40  2   0.42380    -20.536391964855    -19.290554710100    -12.674851468700
     121   41  1  -0.84760      4.883750759790     14.968402595000    -18.387599173500
     122   41  2   0.42380      4.354710104820     15.660476764200    -17.896529596200
     123   41  2   0.42380      4.410055918340     14.725308067800    -19.234073182600
     124   42  1  -0.84760      7.402548961500     19.795041961100     17.671281217600
     125   42  2   0.42380      7.519710225570     19.964729490500     18.649789971100
     126   42  2   0.42380      7.954937314890     20.446724861900     17.151496162200
     127   43  1  -0.84760    -11.700472080300    -13.864323692100     16.140649750100
     128   43  2   0.42380    -10.760494589200    -14.010350812600     16.449062454700
     129   43  2   0.42380    -11.692401465700    -13.476301504500     15.219035054500
     130   44  1  -0.84760     18.065725661200    -18.522921448700    -12.998495268100
     131   44  2   0.42380     18.743286877300    -18.448967212100    -13.730233998400
     132   44  2   0.42380     17.593225968300    -19.401404478500    -13.069287968700
     133   45  1  -0.84760    -11.705049954300      1.144194905260     -8.566596087930
     134   45  2   0.42380    -12.487753514300      0.598178944730     -8.267862581320
     135   45  2   0.42380    -10.862822388500      0.746425507981     -8.202683689100
     136   46  1  -0.84760     -6.128104474720      0.538303197971    -11.634909279700
     137   46  2   0.42380     -5.450533991890      1.093155222410    -12.117648828300
     138   46  2   0.42380     -6.023113747750     -0.420448226698    -11.899054415800
     139   47  1  -0.84760      3.359291537040      8.756055367670     12.967826517100
     140   47  2   0.42380      3.698686637180      9.567032555300     12.491248121500
     141   47  2   0.42380      2.410833790790      8.906038180500     13.246991449400
     142   48  1  -0.84760     -0.112416555600     12.101507752200      5.881634762430
     143   48  2   0.42380      0.840648945983     12.403811194300      5.864938099020
     144   48  2   0.42380     -0.628423133254     12.661530909500      6.529794677220
     145   49  1  -0.84760      6.262320556110    -13.358146402900      8.907726783880
     146   49  2   0.42380      6.264014294120    -14.357352463000      8.867922503650
     147   49  2   0.42380      5.958303720580    -12.990080124600      8.029034017060
     148   50  1  -0.84760     11.244571361400    -13.234165326100    -13.433145761100
     149   50  2   0.42380     12.176300740800    -12.871018437600    -13.430977586400
     150   50  2   0.42380     11.229456987600    -14.116046621800    -12.961916585300
     151   51  1  -0.84760     -4.493707709910      0.124946640970    -20.346493765500
     152   51  2   0.42380     -5.359783954800     -0.210349831256    -20.717287796955
     153   51  2   0.42380     -4.122036245160     -0.548111864821    -19.707077961800
     154   52  1  -0.84760    -12.406604767900      6.636317673780     -4.867766007270
     155   52  2   0.42380    -13.000042601200      5.835061972190     -4.944060427760
     156   52  2   0.42380    -11.579053019500      6.391298026480     -4.362668515500
     157   53  1  -0.84760     12.607926419100     18.421543066700     14.434268508200
     158   53  2   0.42380     12.661096822400     19.084361745700     13.687378752600
     159   53  2   0.42380     13.468629587000     17.915838182400     14.493027566500
     160   54  1  -0.84760      9.886866639930     -2.777284641430     -0.787573502126
     161   54  2   0.42380      8.889851334080     -2.745263784570     -0.717322917645
     162   54  2   0.42380     10.199750888400     -3.718806631310     -0.662514357683
     163   55  1  -0.84760    -10.409824064000     -6.972621093520      5.027092248280
     164   55  2   0.42380     -9.682489754440     -7.186165072520      5.679306761470
     165   55  2   0.42380    -10.243190049000     -7.460774105510      4.170389416530
     166   56  1  -0.84760     -5.739122236350     -5.956519647720      0.225583267200
     167   56  2   0.42380     -5.258683342580     -5.323090071200     -0.381001797693
     168   56  2   0.42380     -6.476917238240     -6.405674527080     -0.278319927397
     169   57  1  -0.84760     19.842384417600     -5.386817378850     -6.392142445350
     170   57  2   0.42380     19.124698911400     -4.709476855830     -6.553812881900
     171   57  2   0.42380     19.601845237500     -6.242942801480     -6.849515557290
     172   58  1  -0.84760    -11.625155049500     -9.409573711310     19.552867064000
     173   58  2   0.42380    -12.040828533300     -8.764640912860     20.194176069300
     174   58  2   0.42380    -11.559773165200     -8.985883928640     18.649422446300
     175   59  1  -0.84760      3.523428738590     10.301114445300     10.902739748500
     176   59  2   0.42380      3.472290267470      9.302439092380     10.897047973700
     177   59  2   0.42380      2.911228896060     10.670203681400     10.203465490000
     178   60  1  -0.84760     -9.011171702740      8.159662961740    -19.896168612000
     179   60  2   0.42380     -9.975988835200      8.213813864820    -20.153453630200
     180   60  2   0.42380     -8.784283868250      8.922668319980    -19.290904426800
     181   61  1  -0.84760    -15.039949943700     -2.848184789970     -1.767144312930
     182   61  2   0.42380    -15.806505343300     -2.823722100580     -1.125432230980
     183   61  2   0.42380    -15.378283417300     -3.067030279930     -2.682369483120
     184   62  1  -0.84760     -0.821477307968     15.573913367000     13.455640740700
     185   62  2   0.42380     -0.157039858217     16.189936737100     13.878769660500
     186   62  2   0.42380     -0.972951146276     15.848452253600     12.506070271500
     187   63  1  -0.84760    -11.023852612300    -19.333327622500     -1.173859427120
     188   63  2   0.42380    -11.208572439100    -18.922456999500     -0.281075065314
     189   63  2   0.42380    -10.987257799600    -20.328397841900     -1.081685253350
     190   64  1  -0.84760    -11.553707171700    -19.687614021600      3.906502893650
     191   64  2   0.42380    -10.713732132500    -20.230013911100      3.922132782130
     192   64  2   0.42380    -12.142264737900    -19.962647327800      4.666737509870
     193   65  1  -0.84760     -8.977220578210     16.687056853900    -18.903694037100
     194   65  2   0.42380     -9.906466991340     16.599166731300    -18.544839707300
     195   65  2   0.42380     -8.319782531260     16.453457256000    -18.187309753200
     196   66  1  -0.84760    -11.997111339600      9.720846077410    -14.742966662600
     197   66  2   0.42380    -12.615362268600     10.330396045000    -15.239166849700
     198   66  2   0.42380    -11.097549316300      9.730956966310    -15.179642670800
     199   67  1  -0.84760     -8.660004779670     -8.073088183300    -14.394545539600
     200   67  2   0.42380     -8.389090200540     -7.170623932460    -14.059637243500
     201   67  2   0.42380     -8.990742865460     -7.994147265240    -15.334960687300
     202   68  1  -0.84760     -0.643033424962    -18.153742326300     14.153179214200
     203   68  2   0.42380     -0.895710455150    -19.115905409400     14.051215887500
     204   68  2   0.42380     -0.698987576567    -17.698460954000     13.264591568000
     205   69  1  -0.84760     20.294295776000    -12.365900402800     10.264183066800
     206   69  2   0.42380     19.318265786000    -12.152690967700     10.307854515200
     207   69  2   0.42380     20.512961714955    -12.743942592800      9.364589097450
     208   70  1  -0.84760    -11.986455199300     -3.235776251800     12.643320291700
     209   70  2   0.42380    -11.876600879300     -3.216662610630     11.649556387600
     210   70  2   0.42380    -12.432843218500     -2.393530859060     12.945579178600
     211   71  1  -0.84760     -2.274751307020    -17.386744363200      6.003908579340
     212   71  2   0.42380     -2.553271621510    -17.236383766600      5.055321142480
     213   71  2   0.42380     -2.958641188790    -16.993471703600      6.618425661920
     214   72  1  -0.84760     14.051994981000    -15.159713621600      2.886920015730
     215   72  2   0.42380     13.383941028900    -15.208205244500      2.144388885330
     216   72  2   0.42380     14.943124755800    -14.897075116000      2.516908205490
     217   73  1  -0.84760     13.706529686000      2.138162214310     17.364320376500
     218   73  2   0.42380     13.801894032900      2.485597487100     18.297162470600
     219   73  2   0.42380     12.915495528600      2.567106474550     16.928118836700
     220   74  1  -0.84760     -1.049147076980     -6.163822571250      6.025883263840
     221   74  2   0.42380     -0.102521214530     -6.276423097840      6.327910742640
     222   74  2   0.42380     -1.628093894120     -6.837052524130      6.485863712850
     223   75  1  -0.84760    -19.786306480700      5.143093195280    -17.885360233600
     224   75  2   0.42380    -20.488811925500      5.834052908730    -17.714888023400
     225   75  2   0.42380    -19.866087595400      4.412325295360    -17.207412411000
     226   76  1  -0.84760      0.762705091564     -9.932452097840    -17.144547814900
     227   76  2   0.42380      1.728850796460     -9.840321495410    -16.903561448100
     228   76  2   0.42380      0.679651539113    -10.118483521200    -18.123575095900
     229   77  1  -0.84760     12.583922282700     -8.705337758430      4.705319948850
     230   77  2   0.42380     13.079641142100     -7.907192683370      4.362935294360
     231   77  2   0.42380     13.188925195300     -9.249271710360      5.286789923690
     232   78  1  -0.84760     -1.958574938690     10.300780226700    -10.393169115100
     233   78  2   0.42380     -2.088270228080     10.856111765600    -11.214622713100
     234   78  2   0.42380     -1.831419515270      9.343906132250    -10.654365335800
     235   79  1  -0.84760     11.322048111000      3.659508378630    -16.830964700600
     236   79  2   0.42380     11.320075555300      4.612563919380    -17.133753810800
     237   79  2   0.42380     10.707975346200      3.557135255520    -16.048382830600
     238   80  1  -0.84760     -0.299827578218    -16.221007287000     -6.781363089910
     239   80  2   0.42380      0.383384009231    -16.724917930400     -6.252878473080
     240   80  2   0.42380     -1.154843623260    -16.176881562500     -6.264642195080
     241   81  1  -0.84760    -18.420343105000     -9.625181396240     18.158964099800
     242   81  2   0.42380    -18.634312116300    -10.081700627400     17.295362656000
     243   81  2   0.42380    -18.411001405200    -10.298304945400     18.898435140600
     244   82  1  -0.84760      5.216153484810     -6.472243275450     -6.805941055490
     245   82  2   0.42380      4.845221211880     -6.432523226760     -5.878130963590
     246   82  2   0.42380      5.654967608470     -7.358904888410     -6.951794917210
     247   83  1  -0.84760     13.826461832300      9.562825800210     15.255095360700
     248   83  2   0.42380     14.077046070000      8.595453664240     15.292494429900
     249   83  2   0.42380     14.312178669400     10.004026110300     14.500495174900
     250   84  1  -0.84760     19.770998230000     19.033633127600     15.654336985500
     251   84  2   0.42380     20.754625034855     18.857617965900     15.615646267900
     252   84  2   0.42380     19.545861331200     19.801104930800     15.054086697600
     253   85  1  -0.84760     10.131995702100     -7.171254637560     -9.449053488340
     254   85  2   0.42380     11.046339500300     -6.870011825620     -9.178446417080
     255   85  2   0.42380      9.776628383750     -6.562166165760    -10.158084730600
     256   86  1  -0.84760    -13.838201965900      5.610198369710      5.053426169250
     257   86  2   0.42380    -12.973250435900      5.915698230820      4.655269559960
     258   86  2   0.42380    -13.745536749000      4.665061449380      5.366682229680
     259   87  1  -0.84760      8.009823121160     14.078273028700     -3.896171528530
     260   87  2   0.42380      8.838337698340     13.764603867500     -3.432301662330
     261   87  2   0.42380      8.221287777610     14.886338314600     -4.446001677500
     262   88  1  -0.84760     19.127677721400     -8.501382942360      5.146634261170
     263   88  2   0.42380     18.329548068700     -8.431594863490      5.745064442150
     264   88  2   0.42380     19.408409689700     -7.586231949600      4.857345093670
     265   89  1  -0.84760      8.325826577750     11.297789743500     -5.817507632280
     266   89  2   0.42380      7.736390900190     12.023976884500     -5.463646334360
     267   89  2   0.42380      7.799199978690     10.711133352600     -6.432730115770
     268   90  1  -0.84760      6.896299239360      9.757039072860     14.542424571000
     269   90  2   0.42380      7.709762007940     10.135303602500     14.984232526700
     270   90  2   0.42380      6.081019906590     10.214562441100     14.897378056900
     271   91  1  -0.84760     -3.718679393040     19.236948484200    -11.606739624800
     272   91  2   0.42380     -3.057227921890     18.951657969100    -10.913132190200
     273   91  2   0.42380     -3.364712491770     19.016308555200    -12.515599049800
     274   92  1  -0.84760     -0.757470801483      4.744399840810     -6.844458870900
     275   92  2   0.42380     -0.931800772410      4.762590892970     -7.828978117460
     276   92  2   0.42380     -0.033045386218      4.084117797010     -6.646379491980
     277   93  1  -0.84760    -20.411249838500     19.014941949000     19.496486832700
     278   93  2   0.42380    -20.683752071155     18.222346456500     20.041954447200
     279   93  2   0.42380    -20.804020141155     18.939736141900     18.579930464600
     280   94  1  -0.84760     13.958990192100     15.032837361600     17.505322959500
     281   94  2   0.42380     13.441884311100     15.147124416200     18.353579982500
     282   94  2   0.42380     13.381068542900     14.590171820300     16.819718273200
     283   95  1  -0.84760    -17.556079846500     18.030371019400     -5.504379388700
     284   95  2   0.42380    -17.406183285700     18.233133125400     -4.536692171970
     285   95  2   0.42380    -18.074471358000     17.179549742500     -5.590247867130
     286   96  1  -0.84760     -9.319346855890     -8.332117280430    -17.263574590900
     287   96  2   0.42380     -9.556769355120     -7.896819780250    -18.131990760300
     288   96  2   0.42380     -8.798641476570     -9.167268946170    -17.440740059200
     289   97  1  -0.84760     -1.467464950220    -20.041875338700      4.118610784220
     290   97  2   0.42380     -1.307436840920    -19.068136416600      3.956674019460
     291   97  2   0.42380     -1.002439155890    -20.320875910000      4.958795104360
     292   98  1  -0.84760     -6.394192131370     -7.310135419320      4.805187337550
     293   98  2   0.42380     -6.705478024940     -6.371817592440      4.955722211320
     294   98  2   0.42380     -5.395325981570     -7.326834628630      4.760605377200
     295   99  1  -0.84760    -18.773824566700     -0.302819208804     -3.987057746540
     296   99  2   0.42380    -17.833764091700     -0.044157465435     -4.209274770960
     297   99  2   0.42380    -19.104831350100     -0.965537014966     -4.658801461620
     298  100  1  -0.84760    -14.808270702200    -10.949473259300      9.662402342340
     299  100  2   0.42380    -14.116702024800    -11.161411585900     10.352920198800
     300  100  2   0.42380    -15.717753539400    -10.999993404600     10.075062837000
     301  101  1  -0.84760     -5.066464177390    -11.940869852100     -1.246215627610
     302  101  2   0.42380     -4.746498043010    -12.413449250300     -0.425063762695
     303  101  2   0.42380     -5.439136940560    -12.608240382000     -1.890988135820
     304  102  1  -0.84760     18.909610296700    -16.019413812500     -2.421514142970
     305  102  2   0.42380     18.991541200900    -16.859557193500     -2.957654447760
     306  102  2   0.42380     18.431453088500    -16.215618928100     -1.565436321240
     307  103  1  -0.84760     -0.238419725032     15.605461177300      6.853275798210
     308  103  2   0.42380      0.169587434371     16.203840975200      6.163731183700
     309  103  2   0.42380     -1.179048930000     15.388750352300      6.592022822990
     310  104  1  -0.84760    -18.473713810400      9.656932887370    -12.933084002100
     311  104  2   0.42380    -17.699930151000     10.290327932600    -12.941424570100
     312  104  2   0.42380    -18.972235271700      9.728339879170    -13.797015361700
     313  105  1  -0.84760     19.234831001700    -19.771710726300     -9.745262068440
     314  105  2   0.42380     18.518866769800    -19.080729129600     -9.844959870520
     315  105  2   0.42380     19.798368164100    -19.555151695000     -8.948061935180
     316  106  1  -0.84760     15.404176335400      9.323417697210    -17.928535568600
     317  106  2   0.42380     14.482086233700      8.961340014510    -17.791972045200
     318  106  2   0.42380     15.838700607100      8.848704838930    -18.693935045600
     319  107  1  -0.84760     16.763389401800     -7.896458414960     12.780325977300
     320  107  2   0.42380     16.495838295600     -8.854150027790     12.886359841200
     321  107  2   0.42380     16.587366178000     -7.404821360890     13.633150010600
     322  108  1  -0.84760     16.938155245100    -18.118417319700     10.410503160000
     323  108  2   0.42380     17.616312266500    -17.529328993200     10.849909575600
     324  108  2   0.42380     16.943999337600    -17.955078282100      9.423950472440
     325  109  1  -0.84760     -8.538279697160    -19.245217707800    -19.604320145300
     326  109  2   0.42380     -9.152299617110    -19.979386843300    -19.894104924800
     327  109  2   0.42380     -8.777067108220    -18.957603121300    -18.676818974400
     328  110  1  -0.84760     -1.015362020610      8.270959580890     -4.253743366780
     329  110  2   0.42380     -1.087621406690      8.741516009390     -3.374337187180
     330  110  2   0.42380     -1.927841003320      8.156639927340     -4.646570457150
     331  111  1  -0.84760     15.953482895100     19.213959429100    -15.762564066300
     332  111  2   0.42380     15.135731838100     18.781977425700    -16.142925417300
     333  111  2   0.42380     16.307710098200     18.654912815300    -15.012904161900
     334  112  1  -0.84760     12.208613004200    -20.078350127200    -18.807833894400
     335  112  2   0.42380     12.276391409200    -19.437503291000    -19.572504686600
     336  112  2   0.42380     13.126028613400    -20.359643039800    -18.526368270900
     337  113  1  -0.84760    -14.731175418400     10.537875416300     -0.492377186334
     338  113  2   0.42380    -14.113871471700     11.068902706800     -1.072847559450
     339  113  2   0.42380    -15.282925224500      9.928804162670     -1.062117793580
     340  114  1  -0.84760     16.870961328700     17.001752914800      3.427768355200