LAMMPS Atom File

         4500 atoms
         3000 bonds
         1500 angles
           0 dihedrals
           0 impropers

           2 atom types
           1 bond types
           1 angle types

         0.0  50.4240673116 xlo xhi
         0.0  50.4240673116 ylo yhi
         0.0  50.4240673116 zlo zhi

Masses

         1   15.9994
         2   1.00794

Atoms

       1    1  1  -0.84760    -18.301605826000      5.276636107310    -19.350252265700
       2    1  2   0.42380    -19.102908929000      5.873943952540    -19.383966879300
       3    1  2   0.42380    -17.666909516400      5.609436618940    -18.652825270300
       4    2  1  -0.84760    -21.217021314800    -15.972186430000    -16.271619896100
       5    2  2   0.42380    -21.030968423200    -16.465612923600    -15.421964308900
       6    2  2   0.42380    -20.588402189700    -16.285414627900    -16.983466854000
       7    3  1  -0.84760    -11.571263306100     19.243437277300     -8.047070306910
       8    3  2   0.42380    -11.889600752300     18.594026241700     -7.356471597700
       9    3  2   0.42380    -12.340097695000     19.801405677700     -8.359424187390
      10    4  1  -0.84760     24.047309323500    -14.788907793800      6.402391272370
      11    4  2   0.42380     24.357111513500    -13.942197737800      6.834947262140
      12    4  2   0.42380     24.793636159700    -15.180806951300      5.864421659790
      13    5  1  -0.84760      0.513232029178     13.593205463900    -13.373188197600
      14    5  2   0.42380      0.306218068835     13.213173483700    -14.274698549300
      15    5  2   0.42380      0.309239933637     12.912456928700    -12.669648108600
      16    6  1  -0.84760    -10.499661267500    -18.668881442100      9.773056323880
      17    6  2   0.42380    -10.353209472200    -19.191349615600     10.613043752000
      18    6  2   0.42380     -9.963914202650    -17.825209858800      9.807601107750
      19    7  1  -0.84760    -18.465946855000     -5.943783736820     22.627822876600
      20    7  2   0.42380    -19.288567483800     -5.718594473620     22.105726049500
      21    7  2   0.42380    -17.656508924800     -5.760272755040     22.070029046800
      22    8  1  -0.84760     22.105251175000     21.882108202000    -17.093379614400
      23    8  2   0.42380     21.533415592300     21.659070263700    -17.882846614600
      24    8  2   0.42380     22.601370701700     22.732070558500    -17.270663025400
      25    9  1  -0.84760    -15.382657408300      1.945649332810     20.036232544700
      26    9  2   0.42380    -15.760390313400      1.746589968500     19.131968633100
      27    9  2   0.42380    -14.471505585400      2.345400381740     19.936225272500
      28   10  1  -0.84760     -7.993985517880    -19.715737488200     -0.663978427509
      29   10  2   0.42380     -7.194173461100    -19.785829647700     -1.260122506580
      30   10  2   0.42380     -7.968503728580    -20.448959327100      0.015533465941
      31   11  1  -0.84760     -1.326767692310      8.837950274710     16.815463479600
      32   11  2   0.42380     -0.941270261107      8.287820670380     17.556239524700
      33   11  2   0.42380     -1.930189124530      8.268846031990     16.256891249700
      34   12  1  -0.84760    -16.013123487100     14.150267605600     18.839143995200
      35   12  2   0.42380    -15.819160583700     13.169377626200     18.823871789800
      36   12  2   0.42380    -15.157449992000     14.657693593000     18.940838327000
      37   13  1  -0.84760    -21.238835713400     17.417948674400     11.756861250200
      38   13  2   0.42380    -21.572358134400     18.014380644000     12.486951450300
      39   13  2   0.42380    -21.276850097100     16.465970255400     12.060657228500
      40   14  1  -0.84760     10.245268325500      3.543637236760     18.873783366900
      41   14  2   0.42380     10.328869647700      3.696750856610     17.889117414200
      42   14  2   0.42380     11.138993717300      3.661834729150     19.306546901400
      43   15  1  -0.84760    -13.839180422900    -22.094575617800     -5.216355529220
      44   15  2   0.42380    -13.668301932400    -22.910294382600     -4.663722343120
      45   15  2   0.42380    -14.028084246400    -21.318183443000     -4.615081435010
      46   16  1  -0.84760    -21.863671458500     12.754236786000     -2.608789046910
      47   16  2   0.42380    -21.110356302000     13.275162801900     -2.207351180060
      48   16  2   0.42380    -22.258432135400     13.270794031900     -3.368613118470
      49   17  1  -0.84760      3.101337509500      1.015808285220     21.024361835300
      50   17  2   0.42380      3.566796593150      1.806428795910     21.422189749800
      51   17  2   0.42380      2.996426243230      1.151701619080     20.039208736500
      52   18  1  -0.84760    -12.087574179000      9.928802874000      8.263496624660
      53   18  2   0.42380    -11.606245261800      9.245274856860      7.714759963580
      54   18  2   0.42380    -12.306211540100     10.720469899300      7.693004709390
      55   19  1  -0.84760     13.158299041100     -0.833972823658     18.350515132100
      56   19  2   0.42380     12.540552724400     -1.299455946390     17.716705262600
      57   19  2   0.42380     14.057970400500     -0.733419321287     17.925685238800
      58   20  1  -0.84760     -5.855353070400     -0.053991888673     -7.273759026940
      59   20  2   0.42380     -6.379453138280      0.140306504413     -6.444562275080
      60   20  2   0.42380     -5.303204507140      0.744442543308     -7.513830728570
      61   21  1  -0.84760    -10.615955140400     22.131316522700     14.638354482100
      62   21  2   0.42380    -10.672089474100     21.139656378600     14.754367822900
      63   21  2   0.42380    -10.977651818700     22.382884709200     13.740641298200
      64   22  1  -0.84760     11.703866895500     -7.833529176580    -24.995992341300
      65   22  2   0.42380     11.264484550900     -7.843774574150    -24.097750621600
      66   22  2   0.42380     11.834246501200     -8.772609633920    -25.314000286276
      67   23  1  -0.84760     25.011181561200     10.542041866200    -17.110579046700
      68   23  2   0.42380     25.866023325776     11.026141973600    -17.297374773500
      69   23  2   0.42380     25.011385667800      9.666637732340    -17.593970772800
      70   24  1  -0.84760    -18.012707934200    -20.118378823900     23.319209631400
      71   24  2   0.42380    -18.862284567100    -20.201607080600     22.798352067200
      72   24  2   0.42380    -17.265370440500    -20.542780549700     22.807966200500
      73   25  1  -0.84760     17.935044632100    -12.075240271100     10.939841577700
      74   25  2   0.42380     18.570100515700    -12.060964017200     10.167507315100
      75   25  2   0.42380     18.442832650000    -11.944561161100     11.791354524800
      76   26  1  -0.84760     -9.879115839110     -5.524671039670    -16.832820223800
      77   26  2   0.42380    -10.680340949700     -6.093976713340    -17.017019496500
      78   26  2   0.42380    -10.167396492000     -4.576326592280    -16.700392604900
      79   27  1  -0.84760     13.024235443800     11.952524124900      3.306000081460
      80   27  2   0.42380     12.962542095300     11.647773116500      4.256431958890
      81   27  2   0.42380     12.556208966900     12.830616848100      3.206479297840
      82   28  1  -0.84760      9.518782762340     -2.226912273320      0.751851494878
      83   28  2   0.42380     10.054955694800     -1.467167165560      0.384011913422
      84   28  2   0.42380      8.548535010530     -1.984942093550      0.743500913215
      85   29  1  -0.84760    -10.078639015800      8.439780511660     -4.237882769140
      86   29  2   0.42380     -9.238333027630      8.381445278130     -3.698918162970
      87   29  2   0.42380    -10.434095938500      9.373746375220     -4.201029792910
      88   30  1  -0.84760      1.446029804040     17.584793943700     -3.676750276210
      89   30  2   0.42380      1.212660793920     18.513637488700     -3.964480313070
      90   30  2   0.42380      1.017480701510     16.926550614800     -4.295669807860
      91   31  1  -0.84760     -1.231834469760    -21.387278681600    -18.330667420300
      92   31  2   0.42380     -0.874221291217    -21.349931160800    -17.397544718100
      93   31  2   0.42380     -1.227582682810    -22.334373864300    -18.651592079900
      94   32  1  -0.84760     17.600342536600      2.634060663710     10.046878751400
      95   32  2   0.42380     17.197664240700      1.763437605730     10.329483919300
      96   32  2   0.42380     17.145955395100      2.957665378670      9.216931575910
      97   33  1  -0.84760      4.131871683810     24.395486878900      6.052977560250
      98   33  2   0.42380      4.450535877540     25.202841006400      6.549598587240
      99   33  2   0.42380      3.132020133260     24.386218291000      6.038452749020
     100   34  1  -0.84760    -18.530656660200    -12.625829675700    -11.304879915100
     101   34  2   0.42380    -18.547947704500    -13.251917148400    -10.525318823000
     102   34  2   0.42380    -17.587581482500    -12.348994066300    -11.489192841000
     103   35  1  -0.84760     -8.264522186060    -11.924191903800    -13.718126419700
     104   35  2   0.42380     -9.153635516960    -11.667964265700    -14.097368930800
     105   35  2   0.42380     -8.311409574340    -11.909429285300    -12.719335331400
     106   36  1  -0.84760    -18.120332738900     12.953611897400     10.101647821400
     107   36  2   0.42380    -17.127720583600     12.947723462100      9.980460217090
     108   36  2   0.42380    -18.560142224200     12.625525471900      9.265629332270
     109   37  1  -0.84760     11.634460625500    -19.205834974500    -15.284269533800
     110   37  2   0.42380     12.202295740000    -19.849457761200    -14.771129210800
     111   37  2   0.42380     11.736547985100    -19.378905969700    -16.263873842500
     112   38  1  -0.84760     -0.534562907702     11.191362285400     24.120592111600
     113   38  2   0.42380     -1.528047021010     11.111072331000     24.039704289200
     114   38  2   0.42380     -0.116644328926     11.079860602000     23.218976097900
     115   39  1  -0.84760     11.658794333200      4.465962846940     -0.896611193321
     116   39  2   0.42380     12.551760487400      4.780046675870     -1.219043815450
     117   39  2   0.42380     11.682029832400      3.475104974200     -0.763717297304
     118   40  1  -0.84760    -23.011684948600    -22.059936107800    -16.922951433900
     119   40  2   0.42380    -23.267630933600    -21.504606507700    -16.131686188900
     120   40  2   0.42380    -22.396074831600    -22.792019561700    -16.631270100300
     121   41  1  -0.84760      7.175670012590     20.490575793000    -25.060729408900
     122   41  2   0.42380      7.793149818290     20.272746570300    -25.816552879876
     123   41  2   0.42380      7.702202529100     20.579671995500    -24.215255946400
     124   42  1  -0.84760      9.886549595390     19.374554757500     25.060453720100
     125   42  2   0.42380      9.618313559230     18.762726555600     25.804574463076
     126   42  2   0.42380     10.193719303300     20.246992585100     25.440583970876
     127   43  1  -0.84760    -14.548220788000    -15.113738611300     18.042724630800
     128   43  2   0.42380    -14.473006622400    -15.649323521600     18.883849849200
     129   43  2   0.42380    -14.982325291100    -15.667856592700     17.332438390500
     130   44  1  -0.84760     20.910544593800    -18.910877372100    -16.795705823500
     131   44  2   0.42380     21.726991929600    -18.620788856500    -17.294967679700
     132   44  2   0.42380     20.953252274500    -19.896260889600    -16.630795613000
     133   45  1  -0.84760    -15.769593622800      2.421446571970    -10.683670993700
     134   45  2   0.42380    -15.805467831600      3.141286056250     -9.990458069660
     135   45  2   0.42380    -15.028360949700      2.614465967530    -11.326568837300
     136   46  1  -0.84760     -8.992213988210      2.058116958800    -15.922818264300
     137   46  2   0.42380     -8.336118852970      1.856016300160    -16.649932077400
     138   46  2   0.42380     -9.770707273370      2.555836916970    -16.305209488300
     139   47  1  -0.84760      7.016577542700     11.659132821000     17.191562430800
     140   47  2   0.42380      6.792575501000     11.817180573000     16.229874335100
     141   47  2   0.42380      7.207120646210     10.687864468400     17.334149642100
     142   48  1  -0.84760     -2.564062904890     15.084251826500      5.678561518220
     143   48  2   0.42380     -2.328905923300     14.135275357600      5.888668289940
     144   48  2   0.42380     -2.615437683890     15.610656501200      6.527242112150
     145   49  1  -0.84760      9.739863334170    -16.701625191800     15.504220653400
     146   49  2   0.42380      8.975244579550    -16.375119464800     16.059875375600
     147   49  2   0.42380      9.418072374090    -16.900807408900     14.578598148000
     148   50  1  -0.84760     14.941249094700    -15.637708003600    -22.904951283200
     149   50  2   0.42380     14.874978178200    -15.745689632700    -23.896892881000
     150   50  2   0.42380     15.124772726400    -14.679501089400    -22.685500636900
     151   51  1  -0.84760     -4.484725005420      2.370014697410    -22.399677166600
     152   51  2   0.42380     -3.999075421010      1.496525893200    -22.433762208700
     153   51  2   0.42380     -5.220377206820      2.369020823850    -23.077035897800
     154   52  1  -0.84760    -16.940640195000      5.448102563290     -5.162736980160
     155   52  2   0.42380    -17.245964088700      4.853769321200     -4.418730718580
     156   52  2   0.42380    -16.907670147200      4.925499103320     -6.014675123200
     157   53  1  -0.84760     13.294847919300     18.773349718900     21.381589601100
     158   53  2   0.42380     12.657822440800     18.746571206700     20.611212128100
     159   53  2   0.42380     13.159227161200     17.965025973700     21.954494246700
     160   54  1  -0.84760     10.133381215200     -3.689741168700     -5.324998714690
     161   54  2   0.42380      9.543855044890     -3.837693464910     -6.119082471320
     162   54  2   0.42380      9.757789186900     -4.175741456800     -4.535863524610
     163   55  1  -0.84760    -11.271286476100     -7.278383147960      6.474977059860
     164   55  2   0.42380    -11.548882803500     -7.495739301560      5.539190448760
     165   55  2   0.42380    -10.273171513400     -7.283085406980      6.536168643350
     166   56  1  -0.84760     -9.450574315040     -5.259916145480      0.991122991287
     167   56  2   0.42380     -9.385323761830     -5.950077638800      1.711830614700
     168   56  2   0.42380     -9.488488858650     -5.711452691070      0.099676282062
     169   57  1  -0.84760     22.259148935700     -7.719274212980     -9.411665412960
     170   57  2   0.42380     22.435900296400     -7.471813428980    -10.364304965400
     171   57  2   0.42380     23.028826788700     -7.428305086900     -8.843393497230
     172   58  1  -0.84760    -10.196201065500     -7.795735329220     23.596534200400
     173   58  2   0.42380    -10.085594625200     -8.321671312620     22.753232619300
     174   58  2   0.42380     -9.981864527280     -8.376343690170     24.381998254100
     175   59  1  -0.84760      3.012438852740     12.474397390100     13.928557618100
     176   59  2   0.42380      2.969995825090     12.394839571200     14.924483891900
     177   59  2   0.42380      2.095435331690     12.362051194000     13.545826805900
     178   60  1  -0.84760    -10.210389604700      6.986482873720     22.845581595000
     179   60  2   0.42380    -10.369641466200      6.897765073040     21.862337985100
     180   60  2   0.42380     -9.723319742960      7.840447125100     23.028633519600
     181   61  1  -0.84760    -18.271532333400     -1.813421868120     -1.716931888490
     182   61  2   0.42380    -17.450232048000     -1.602070249130     -1.187029695320
     183   61  2   0.42380    -18.288624700300     -2.790353314220     -1.929799924170
     184   62  1  -0.84760     -0.234022734505     22.117051665800     16.670083076100
     185   62  2   0.42380      0.749727044653     22.241090141300     16.540272334600
     186   62  2   0.42380     -0.481112230444     21.170858200100     16.461122059200
     187   63  1  -0.84760    -12.145458814000    -24.859940666500     -4.929290911140
     188   63  2   0.42380    -11.519597767100    -25.149501199700     -5.653481940900
     189   63  2   0.42380    -12.960224166600    -25.439605060176     -4.941399205400
     190   64  1  -0.84760    -15.605561031900     24.354143290100      4.285889578630
     191   64  2   0.42380    -15.273858489400     24.755678163300      5.139554131550
     192   64  2   0.42380    -15.938993990900     23.427728154700      4.460753693690
     193   65  1  -0.84760    -10.017352867200     18.357310515900    -21.591895021600
     194   65  2   0.42380    -10.448171316700     17.682261017400    -22.190813745700
     195   65  2   0.42380     -9.897230280530     19.216174187100    -22.089814451300
     196   66  1  -0.84760    -13.944133516600     11.245410671300    -17.770505842600
     197   66  2   0.42380    -13.207347465900     10.609846187800    -18.001165988400
     198   66  2   0.42380    -13.859433767600     12.070676337400    -18.328862836800
     199   67  1  -0.84760    -11.326432545100     -2.332037069050    -16.636239071600
     200   67  2   0.42380    -10.677830978400     -2.685863342160    -15.962352600300
     201   67  2   0.42380    -12.030792483200     -1.795658046430    -16.171293245000
     202   68  1  -0.84760     -0.412644339991    -22.594497669400     20.577182554300
     203   68  2   0.42380      0.499369427287    -22.904829474300     20.845371031400
     204   68  2   0.42380     -0.727984939960    -23.126369654300     19.791261122000
     205   69  1  -0.84760    -21.469119809500    -22.707020283400     12.736710621000
     206   69  2   0.42380    -22.353144910000    -22.942902685500     13.140268688900
     207   69  2   0.42380    -20.920484456900    -22.205572580100     13.405701989200
     208   70  1  -0.84760    -15.374413480600     -4.729653392080     15.285412925300
     209   70  2   0.42380    -15.364662541300     -4.060916650680     14.541977595300
     210   70  2   0.42380    -16.317737828200     -4.999404939210     15.478734620800
     211   71  1  -0.84760     -3.430025801020    -20.057733672800      5.826195162530
     212   71  2   0.42380     -3.029710287100    -20.396863280200      6.677510966850
     213   71  2   0.42380     -2.840193474550    -20.306873768000      5.058062986650
     214   72  1  -0.84760     16.469120166300    -17.446597339100      4.201942317950
     215   72  2   0.42380     16.987431522800    -17.833471659600      4.964622852570
     216   72  2   0.42380     16.309517933600    -16.473325545000      4.367076027830
     217   73  1  -0.84760     15.740154544100      2.580101742480     22.003032815800
     218   73  2   0.42380     14.765939471600      2.738540285670     22.163663511800
     219   73  2   0.42380     16.079540254800      1.902126112530     22.655080655000
     220   74  1  -0.84760      1.075267283480     -6.800814111340      5.961354846820
     221   74  2   0.42380      0.833204847138     -7.725251479270      6.256009440670
     222   74  2   0.42380      1.213466368600     -6.220604951920      6.764011899490
     223   75  1  -0.84760     21.833321304300      5.947356443250    -21.667386695500
     224   75  2   0.42380     21.461171428400      6.263098404970    -22.540204822900
     225   75  2   0.42380     21.948160062100      4.954320867640    -21.693700290400
     226   76  1  -0.84760     -1.111864438980    -10.596371602400    -17.238504210200
     227   76  2   0.42380     -1.377744897710    -11.509731480900    -16.930151629500
     228   76  2   0.42380     -1.560745831230     -9.908292152420    -16.668370746700
     229   77  1  -0.84760     16.749513762200    -14.545089141100      3.154042045950
     230   77  2   0.42380     15.969738384900    -14.008494457000      3.476557946440
     231   77  2   0.42380     17.164568732800    -14.089702807000      2.366417352270
     232   78  1  -0.84760     -4.538636017090      6.650191129170    -15.458749761800
     233   78  2   0.42380     -4.893663868960      5.903674128250    -14.896017505900
     234   78  2   0.42380     -3.897303601200      6.283596004120    -16.132768119500
     235   79  1  -0.84760     14.635407433500      4.294998488610    -23.397661640900
     236   79  2   0.42380     15.391646377700      4.363390654630    -24.048372921600
     237   79  2   0.42380     14.173375117100      3.415904022060    -23.514790021100
     238   80  1  -0.84760     -0.368541739164    -19.938520239100     -8.335508567650
     239   80  2   0.42380     -1.040634058900    -20.237400260100     -7.658040747890
     240   80  2   0.42380      0.048911427283    -20.738594954900     -8.766337191340
     241   81  1  -0.84760    -23.711416275200    -13.560414342200     21.465326769300
     242   81  2   0.42380    -23.634538103900    -13.882704383400     22.408840879500
     243   81  2   0.42380    -23.239494219800    -12.683610198100     21.373109273500
     244   82  1  -0.84760      8.105413322690     -7.657819366020     -8.202151327230
     245   82  2   0.42380      7.716682090280     -8.457634206460     -7.744784680050
     246   82  2   0.42380      9.094072308890     -7.775178795220     -8.295853906620
     247   83  1  -0.84760     20.720175267700      8.750832643110     18.618987537900
     248   83  2   0.42380     21.281710464400      8.947393652220     19.422754912500
     249   83  2   0.42380     20.786623696800      7.778348289760     18.395696721300
     250   84  1  -0.84760     21.373024724000     24.748852134600    -24.833525844500
     251   84  2   0.42380     20.980942304300     25.655002667376    -24.674898646000
     252   84  2   0.42380     21.673540769800     24.677545358500    -25.784633330476
     253   85  1  -0.84760    -16.313940604600      7.555569630230      4.261416929850
     254   85  2   0.42380    -16.314587477800      6.725803641290      4.819528016610
     255   85  2   0.42380    -17.254543716500      7.866878620670      4.125945537150
     256   86  1  -0.84760      9.845505743700     17.304716454800     -4.789091916550
     257   86  2   0.42380      9.214116512400     16.865474943000     -5.428165099290
     258   86  2   0.42380      9.955599080220     16.727770381500     -3.979763376530
     259   87  1  -0.84760     22.752794130100    -13.804584946900      0.823716732820
     260   87  2   0.42380     21.825383092200    -13.434522238400      0.769289180023
     261   87  2   0.42380     23.375725506100    -13.095548469100      1.154206935350
     262   88  1  -0.84760     13.495730497200     16.758375653100     -6.018899306450
     263   88  2   0.42380     13.083712087600     17.663547785300     -5.914475931060
     264   88  2   0.42380     14.091109369300     16.753836092900     -6.822331563140
     265   89  1  -0.84760      8.926836001900     11.128598585800     14.067842854500
     266   89  2   0.42380      8.517327215850     11.485483082700     13.228238179700
     267   89  2   0.42380      9.706145748960     10.545993952200     13.837087228400
     268   90  1  -0.84760     -4.040388990530     24.284630799200     -8.738264633790
     269   90  2   0.42380     -4.681835096650     24.022967242200     -9.459429716070
     270   90  2   0.42380     -3.689161185060     25.202791845500     -8.921620357910
     271   91  1  -0.84760     -1.196210501700      7.970347084950    -11.016162443000
     272   91  2   0.42380     -1.285061846550      7.834247115430    -10.029459733500
     273   91  2   0.42380     -0.266271671975      7.739166148230    -11.302115494100
     274   92  1  -0.84760    -25.089078058500     23.372765833100     23.964670653700
     275   92  2   0.42380    -24.568396528400     24.007998440100     24.535083030200
     276   92  2   0.42380    -25.974535407076     23.778043448300     23.737260587200
     277   93  1  -0.84760     12.473784884200     20.969375477000    -25.138532505200
     278   93  2   0.42380     12.598439469100     20.160111502500    -25.712599621476
     279   93  2   0.42380     12.975127320000     21.738978882900    -25.533964369876
     280   94  1  -0.84760    -20.339181081500     22.357488028600     -5.303879174600
     281   94  2   0.42380    -20.809200391400     23.210478943100     -5.530789615200
     282   94  2   0.42380    -21.014371051400     21.638282968600     -5.139981077630
     283   95  1  -0.84760     -9.588628249720     -9.542276188080    -21.281783535900
     284   95  2   0.42380     -9.468875049030     -8.800478093310    -20.621939040900
     285   95  2   0.42380    -10.555739714200     -9.791856311590    -21.330826142800
     286   96  1  -0.84760     -2.327605494630    -22.277159522300      4.273357916070
     287   96  2   0.42380     -3.162671725210    -22.785844842100      4.482889860970
     288   96  2   0.42380     -1.737373943250    -22.258431651000      5.080374633740
     289   97  1  -0.84760     -7.298231533480    -10.372516685900      8.679108148610
     290   97  2   0.42380     -6.619239089390    -11.045913043000      8.971523276500
     291   97  2   0.42380     -7.677543765620     -9.911615656890      9.481412624520
     292   98  1  -0.84760    -22.028540943200      1.380253461130     -4.781120015950
     293   98  2   0.42380    -22.850523636700      1.811066368050     -4.408635531920
     294   98  2   0.42380    -21.865849922600      0.511903744702     -4.312611316140
     295   99  1  -0.84760    -20.748272222000     -8.719468795990      9.946683061520
     296   99  2   0.42380    -19.796577280900     -8.798840417680     10.243292037700
     297   99  2   0.42380    -20.786106649400     -8.707749394130      8.947467763540
     298  100  1  -0.84760     -3.491935216180    -13.095330905400     -1.508326635430
     299  100  2   0.42380     -4.139588685680    -12.821341871400     -2.219294280740
     300  100  2   0.42380     -2.987443441670    -13.904055666100     -1.810737466550
     301  101  1  -0.84760    -23.789993027100    -18.319753062600     -4.688596098190
     302  101  2   0.42380    -23.945160625800    -19.297954620800     -4.550593461400
     303  101  2   0.42380    -22.892866880000    -18.069918158200     -4.324251211070
     304  102  1  -0.84760    -22.890853697400    -16.589533160300     12.309146232400
     305  102  2   0.42380    -22.625304852900    -15.655534362800     12.548165180300
     306  102  2   0.42380    -22.967462612900    -16.670300396500     11.315361684500
     307  103  1  -0.84760     -0.293060500427     19.181903936000      8.423902152870
     308  103  2   0.42380     -0.351681876916     20.095298107200      8.826735396580
     309  103  2   0.42380     -1.159738117710     18.957966541300      7.978119749710
     310  104  1  -0.84760    -18.272595250900     17.389778204300    -14.677961616300
     311  104  2   0.42380    -18.693354604700     16.515058939900    -14.437487553900
     312  104  2   0.42380    -17.394137524000     17.477404700500    -14.208245085600
     313  105  1  -0.84760     22.264134125500    -23.910953302600     -9.848610787590
     314  105  2   0.42380     21.508187228900    -24.310889369000    -10.366872721600
     315  105  2   0.42380     23.043941764900    -24.536870630900     -9.859904310830
     316  106  1  -0.84760    -17.324475074300    -14.823060502000     20.482198145000
     317  106  2   0.42380    -17.682152085700    -15.741426524500     20.651523288300
     318  106  2   0.42380    -17.340402774100    -14.634977691400     19.500174130700
     319  107  1  -0.84760     19.811906773300     12.111559047700    -19.586932891700
     320  107  2   0.42380     19.854736803500     11.996499853700    -20.579367761300
     321  107  2   0.42380     19.343363210600     12.968103741400    -19.370604166100
     322  108  1  -0.84760     19.583556946300    -13.414008613900     13.120471215400
     323  108  2   0.42380     19.493168781300    -14.409367270600     13.153503382900
     324  108  2   0.42380     19.378515268700    -13.091184816900     12.196489231600
     325  109  1  -0.84760     18.306931534100     22.124240826300     12.769757113900
     326  109  2   0.42380     18.993950778400     22.830509253200     12.598907861100
     327  109  2   0.42380     17.488544760300     22.317466360000     12.228548298800
     328  110  1  -0.84760     -8.994527188110    -22.207347471500    -23.274008409600
     329  110  2   0.42380     -9.837856943880    -22.480324560500    -22.811106225600
     330  110  2   0.42380     -9.142767586810    -21.342882328100    -23.754346623800
     331  111  1  -0.84760     -2.958798172310      9.614431185160     -4.821396233160
     332  111  2   0.42380     -2.732521671000     10.586756030500     -4.879562719060
     333  111  2   0.42380     -3.816290128490      9.501207589350     -4.319511821730
     334  112  1  -0.84760     15.793366193700     22.302085789900    -18.538986389100
     335  112  2   0.42380     16.280452734200     23.079948442100    -18.141901516200
     336  112  2   0.42380     14.817296783200     22.381432298700    -18.336520003300
     337  113  1  -0.84760     12.630187956800     21.862135826800    -20.861119042500
     338  113  2   0.42380     12.323295774900     21.506468164500    -19.978329315200
     339  113  2   0.42380     13.611486507300     22.050536767800    -20.821644491700
     340  114  1  -0.84760    -16.423642488100     14.822285360000      0.423380629529