LAMMPS Atom File

         4500 atoms
         3000 bonds
         1500 angles
           0 dihedrals
           0 impropers

           2 atom types
           1 bond types
           1 angle types

         0.0  1649.40467806 xlo xhi
         0.0  1649.40467806 ylo yhi
         0.0  1649.40467806 zlo zhi

Masses

         1   15.9994
         2   1.00794

Atoms

       1    1  1  -0.84760   -473.051822485000    254.901093752000   -523.499541158000
       2    1  2   0.42380   -472.253623810000    255.299446295000   -523.047662715000
       3    1  2   0.42380   -473.370887478000    255.518924272000   -524.218208660000
       4    2  1  -0.84760   -713.329941290000   -571.808033777000   -322.995116624000
       5    2  2   0.42380   -712.654549663000   -572.425992725000   -322.592658069000
       6    2  2   0.42380   -713.702237244000   -572.217879112000   -323.827836579000
       7    3  1  -0.84760   -328.471387033000    495.414764645000    -98.183930499200
       8    3  2   0.42380   -328.798896879000    496.352029791000    -98.303393243000
       9    3  2   0.42380   -329.252833752000    494.793556002000    -98.125271767700
      10    4  1  -0.84760    679.182849508000   -473.325498690000    267.425376425000
      11    4  2   0.42380    680.135745692000   -473.189260661000    267.696352550000
      12    4  2   0.42380    678.652928433000   -472.507004480000    267.647301823000
      13    5  1  -0.84760    -42.560738598000    414.013378910000   -322.530162612000
      14    5  2   0.42380    -42.825950673100    414.953465627000   -322.315920880000
      15    5  2   0.42380    -41.981086882100    414.008051319000   -323.345009533000
      16    6  1  -0.84760   -270.644308641000   -602.502251712000    327.559154489000
      17    6  2   0.42380   -270.605960208000   -602.926090931000    328.464079742000
      18    6  2   0.42380   -269.979175757000   -602.942853485000    326.956271146000
      19    7  1  -0.84760   -639.979596449000   -273.671723234000    768.340109746000
      20    7  2   0.42380   -639.332894771000   -274.261062135000    767.855902561000
      21    7  2   0.42380   -640.909448491000   -273.873987845000    768.032759443000
      22    8  1  -0.84760   -821.708372252000    710.457737850000   -568.101972615000
      23    8  2   0.42380   -821.572334427000    710.518281814000   -567.113120685000
      24    8  2   0.42380   -822.678487003000    710.312995692000   -568.296721370000
      25    9  1  -0.84760   -478.671608259000     29.506355868800    759.217654023000
      26    9  2   0.42380   -479.038386198000     29.207053255200    758.336806766000
      27    9  2   0.42380   -477.719769222000     29.211040040500    759.300061598000
      28   10  1  -0.84760   -381.835237399000   -750.171848453000     46.804262746400
      29   10  2   0.42380   -381.860230867000   -751.168959229000     46.875994383100
      30   10  2   0.42380   -382.762247823000   -749.807839026000     46.894533514500
      31   11  1  -0.84760    -16.719089812100    395.681316622000    469.073139015000
      32   11  2   0.42380    -17.300469882600    396.427864663000    469.396655992000
      33   11  2   0.42380    -17.200427709700    395.167849862000    468.362740736000
      34   12  1  -0.84760   -510.143035062000    397.009476340000    632.868048486000
      35   12  2   0.42380   -510.486256249000    396.167534592000    632.451715315000
      36   12  2   0.42380   -509.167475815000    397.105423914000    632.670366366000
      37   13  1  -0.84760   -635.675899952000    626.514495252000    338.224233963000
      38   13  2   0.42380   -635.996428104000    626.438993953000    337.280008748000
      39   13  2   0.42380   -635.293720318000    625.638200396000    338.517570036000
      40   14  1  -0.84760    393.977611093000    114.888761135000    698.843298535000
      41   14  2   0.42380    393.961193770000    115.349399360000    699.730734672000
      42   14  2   0.42380    393.161861700000    115.139899418000    698.322258719000
      43   15  1  -0.84760   -303.271660385000   -643.132451104000   -135.741161077000
      44   15  2   0.42380   -303.133104140000   -642.879896200000   -136.698771743000
      45   15  2   0.42380   -302.440606199000   -642.935659107000   -135.220947804000
      46   16  1  -0.84760    812.722151918000    362.198038447000   -111.223733559000
      47   16  2   0.42380    812.483194228000    362.011991379000   -112.176773805000
      48   16  2   0.42380    813.692413320000    362.003757641000   -111.079345954000
      49   17  1  -0.84760     73.428348048600     87.600196272000    619.852048889000
      50   17  2   0.42380     73.917777123700     88.381510171500    620.239357256000
      51   17  2   0.42380     73.313524645700     87.733499311100    618.867647606000
      52   18  1  -0.84760   -453.035816248000    152.692701908000    191.622126748000
      53   18  2   0.42380   -453.617763981000    153.252079873000    192.212408993000
      54   18  2   0.42380   -453.214351771000    152.921045301000    190.665056028000
      55   19  1  -0.84760    410.828315900000   -116.514813410000    690.328548107000
      56   19  2   0.42380    410.772978612000   -116.211239667000    689.377348460000
      57   19  2   0.42380    411.755788562000   -116.834096442000    690.523106085000
      58   20  1  -0.84760   -138.563963481000     -0.197617644467   -177.187211120000
      59   20  2   0.42380   -137.641031326000      0.187087484552   -177.201289479000
      60   20  2   0.42380   -138.516803132000     -1.168589019140   -176.952710607000
      61   21  1  -0.84760   -422.359450157000    747.003088277000    483.526161284000
      62   21  2   0.42380   -421.414333775000    746.943187828000    483.204965143000
      63   21  2   0.42380   -422.978618270000    746.714716026000    482.795769408000
      64   22  1  -0.84760    287.799679564000   -280.728968188000   -803.523275304000
      65   22  2   0.42380    288.388864237000   -279.922991211000   -803.466156726000
      66   22  2   0.42380    287.383433927000   -280.773877527000   -804.431417760000
      67   23  1  -0.84760   -656.403230773000    453.867274861000   -550.165436571000
      68   23  2   0.42380   -657.375557159000    453.683551379000   -550.309752478000
      69   23  2   0.42380   -656.237641740000    454.851687285000   -550.224702507000
      70   24  1  -0.84760   -500.794025431000   -559.535156673000    794.254867836000
      71   24  2   0.42380   -500.434768679000   -559.277046977000    795.151703368000
      72   24  2   0.42380   -501.789324818000   -559.438314283000    794.254041395000
      73   25  1  -0.84760    584.260665628000   -433.498499986000    379.924827472000
      74   25  2   0.42380    584.360815420000   -434.275390068000    380.546447790000
      75   25  2   0.42380    583.775091187000   -433.791173363000    379.101080085000
      76   26  1  -0.84760   -223.160669170000   -269.041511279000   -532.462424057000
      77   26  2   0.42380   -222.867312041000   -269.924752622000   -532.828246863000
      78   26  2   0.42380   -223.388016100000   -268.426818156000   -533.217715880000
      79   27  1  -0.84760    393.689794841000    402.113276352000     68.589895181200
      80   27  2   0.42380    394.129485980000    402.803390343000     69.164712005000
      81   27  2   0.42380    394.317832766000    401.835682011000     67.862908422900
      82   28  1  -0.84760    274.165625125000    -52.785743192800     21.472508455700
      83   28  2   0.42380    274.876221406000    -52.100233342100     21.631030281700
      84   28  2   0.42380    273.440804602000    -52.390186204200     20.908442964000
      85   29  1  -0.84760   -271.008125068000    314.210779729000   -158.243196160000
      86   29  2   0.42380   -270.422100926000    314.971640079000   -157.964507744000
      87   29  2   0.42380   -270.685984783000    313.844309331000   -159.116079361000
      88   30  1  -0.84760     22.721097287800    568.847346600000   -101.202699945000
      89   30  2   0.42380     23.697677916100    568.632640976000   -101.188851790000
      90   30  2   0.42380     22.273057514100    568.412246590000   -100.421708048000
      91   31  1  -0.84760   -125.213691991000   -729.479656928000   -592.791245166000
      92   31  2   0.42380   -125.365653944000   -729.753354501000   -593.740980500000
      93   31  2   0.42380   -124.261436760000   -729.655816357000   -592.541890338000
      94   32  1  -0.84760    628.853836120000    168.828094103000    393.354353253000
      95   32  2   0.42380    629.827487510000    168.958968800000    393.167605339000
      96   32  2   0.42380    628.315753663000    169.218240424000    392.607189872000
      97   33  1  -0.84760    129.533395178000    812.099822563000    284.020770656000
      98   33  2   0.42380    128.936396103000    812.684148278000    283.471083870000
      99   33  2   0.42380    129.521054386000    812.410793435000    284.971109975000
     100   34  1  -0.84760   -607.291852923000   -413.193643450000   -373.607146703000
     101   34  2   0.42380   -608.137492183000   -413.719978308000   -373.518457022000
     102   34  2   0.42380   -606.860788324000   -413.400922783000   -374.485337223000
     103   35  1  -0.84760   -338.128898057000   -343.209725668000   -412.150278409000
     104   35  2   0.42380   -337.248900318000   -343.593902599000   -411.870972009000
     105   35  2   0.42380   -338.862879555000   -343.643349963000   -411.627553689000
     106   36  1  -0.84760   -539.571335350000    409.227733122000    340.885343035000
     107   36  2   0.42380   -540.250945022000    409.562492065000    341.538081224000
     108   36  2   0.42380   -539.602113256000    408.228666510000    340.855034211000
     109   37  1  -0.84760    410.099123337000   -640.153018936000   -507.770522489000
     110   37  2   0.42380    409.330960249000   -640.644831916000   -508.180455976000
     111   37  2   0.42380    409.764496874000   -639.569220048000   -507.030790112000
     112   38  1  -0.84760      4.827342827640    386.215390476000    778.719193977000
     113   38  2   0.42380      5.234899364710    385.439373103000    778.237847215000
     114   38  2   0.42380      5.220798213120    386.282834650000    779.636060458000
     115   39  1  -0.84760    347.923852074000    194.236484364000    -35.334405134800
     116   39  2   0.42380    348.570028061000    193.520693670000    -35.599169701100
     117   39  2   0.42380    348.332497540000    194.807756202000    -34.622606448100
     118   40  1  -0.84760   -790.896971117000   -754.643740271000   -582.124811735000
     119   40  2   0.42380   -790.297735280000   -754.653211230000   -582.925328264000
     120   40  2   0.42380   -790.884102027000   -753.734121350000   -581.709567464000
     121   41  1  -0.84760    151.408280070000    614.680757209000   -783.050223427000
     122   41  2   0.42380    151.884904596000    613.808665761000   -783.161063708000
     123   41  2   0.42380    151.356716435000    614.911275654000   -782.078522631000
     124   42  1  -0.84760    305.720879541000    607.881340223000    772.898031124000
     125   42  2   0.42380    305.684161886000    607.362691481000    773.752229752000
     126   42  2   0.42380    305.281900776000    607.355349187000    772.169586841000
     127   43  1  -0.84760   -465.963962623000   -552.501167821000    644.462987350000
     128   43  2   0.42380   -465.938374065000   -551.957083193000    643.624347295000
     129   43  2   0.42380   -466.007770005000   -553.472415064000    644.228979430000
     130   44  1  -0.84760    661.754025265000   -628.583174333000   -563.155433664000
     131   44  2   0.42380    660.919396983000   -628.652398933000   -563.701879989000
     132   44  2   0.42380    661.588362285000   -627.990008507000   -562.367582104000
     133   45  1  -0.84760   -481.573033163000     61.339584546800   -407.163079124000
     134   45  2   0.42380   -481.003923791000     61.696826886100   -406.422476374000
     135   45  2   0.42380   -481.811287760000     60.387596963200   -406.970843884000
     136   46  1  -0.84760   -292.087329635000     69.025515998500   -520.137982175000
     137   46  2   0.42380   -292.189356083000     69.549123266900   -519.292153568000
     138   46  2   0.42380   -291.921262341000     68.064462290500   -519.917080784000
     139   47  1  -0.84760    210.120651057000    367.710172708000    531.786524509000
     140   47  2   0.42380    210.520233095000    368.335299193000    531.116038810000
     141   47  2   0.42380    210.845474153000    367.163866173000    532.206263296000
     142   48  1  -0.84760    -18.911076381000    483.509841570000    229.971876778000
     143   48  2   0.42380    -19.893876459700    483.337252807000    230.037581605000
     144   48  2   0.42380    -18.464457660600    483.220115709000    230.818393549000
     145   49  1  -0.84760    351.640877888000   -554.177586368000    466.037286782000
     146   49  2   0.42380    351.727496641000   -554.495120642000    465.093004421000
     147   49  2   0.42380    351.713856640000   -554.957299549000    466.659156108000
     148   50  1  -0.84760    489.205459078000   -514.952383089000   -749.555684589000
     149   50  2   0.42380    489.867968433000   -515.668257852000   -749.776149276000
     150   50  2   0.42380    488.294462900000   -515.355983740000   -749.470876097000
     151   51  1  -0.84760   -163.794113851000     83.199048343200   -803.112753229000
     152   51  2   0.42380   -164.267872556000     83.499426928200   -802.284909407000
     153   51  2   0.42380   -163.027835487000     83.813703654800   -803.299879702000
     154   52  1  -0.84760   -528.602766938000    227.456812173000   -228.734043405000
     155   52  2   0.42380   -529.303998988000    226.809896012000   -228.434421822000
     156   52  2   0.42380   -528.292373074000    227.997662676000   -227.952291281000
     157   53  1  -0.84760    468.554328767000    677.392806307000    644.780211527000
     158   53  2   0.42380    467.846792621000    677.602409758000    645.455088549000
     159   53  2   0.42380    468.133144778000    676.978307239000    643.973493131000
     160   54  1  -0.84760    386.393050999000   -119.969575287000   -102.929110613000
     161   54  2   0.42380    385.945885820000   -120.710224371000   -102.427630566000
     162   54  2   0.42380    386.426838371000   -120.198629360000   -103.901937753000
     163   55  1  -0.84760   -422.051402390000   -279.877526190000    204.459937777000
     164   55  2   0.42380   -422.328998718000   -280.094882344000    203.524151166000
     165   55  2   0.42380   -421.053287428000   -279.882228449000    204.521129361000
     166   56  1  -0.84760   -213.057268692000   -168.344660963000     81.436859652900
     167   56  2   0.42380   -213.447286057000   -169.201535447000     81.773983627300
     168   56  2   0.42380   -212.099147295000   -168.281853369000     81.716249334400
     169   57  1  -0.84760    799.667510117000   -220.938571983000   -261.810645319000
     170   57  2   0.42380    798.707616889000   -220.674352089000   -261.716875185000
     171   57  2   0.42380    800.229682321000   -220.118844806000   -261.920234406000
     172   58  1  -0.84760   -333.640167481000   -254.288781080000    768.187368843000
     173   58  2   0.42380   -334.246800372000   -254.712472624000    767.514701011000
     174   58  2   0.42380   -333.385383717000   -254.964735425000    768.878867908000
     175   59  1  -0.84760    186.134395462000    373.593809410000    409.923329833000
     176   59  2   0.42380    185.456453338000    374.196732535000    409.502760954000
     177   59  2   0.42380    186.674408459000    374.111233286000    410.587150965000
     178   60  1  -0.84760   -348.103051344000    309.737015058000    678.748066583000
     179   60  2   0.42380   -349.067868477000    309.791165961000    678.490781565000
     180   60  2   0.42380   -347.876163510000    310.500020416000    679.353330768000
     181   61  1  -0.84760   -597.406023917000    -56.494497726800    -55.251907015700
     182   61  2   0.42380   -596.584723632000    -56.283146107800    -54.722004822500
     183   61  2   0.42380   -597.423116284000    -57.471429172900    -55.464775051300
     184   62  1  -0.84760    -33.814526746300    731.723138354000    597.468705971000
     185   62  2   0.42380    -33.998488876400    730.815469118000    597.091486549000
     186   62  2   0.42380    -33.420414418100    731.630472525000    598.383084731000
     187   63  1  -0.84760   -408.745843347000   -796.116824988000    -82.150080759600
     188   63  2   0.42380   -409.554285415000   -796.676770988000    -81.968747084800
     189   63  2   0.42380   -409.026823881000   -795.174087572000    -82.329791924500
     190   64  1  -0.84760   -463.355939624000   -793.177239648000    158.241398546000
     191   64  2   0.42380   -463.919874420000   -793.713689633000    157.613545889000
     192   64  2   0.42380   -463.277768351000   -793.659368680000    159.114004327000
     193   65  1  -0.84760   -317.731313494000    663.336871114000   -669.047979335000
     194   65  2   0.42380   -318.683778079000    663.100271484000   -669.239895539000
     195   65  2   0.42380   -317.363054185000    663.876985167000   -669.804723606000
     196   66  1  -0.84760   -467.297075857000    342.213862996000   -536.102236983000
     197   66  2   0.42380   -467.193187639000    341.310737290000   -535.685618214000
     198   66  2   0.42380   -467.825487313000    342.803793492000   -535.491693501000
     199   67  1  -0.84760   -360.917729003000   -146.456789768000   -462.913539609000
     200   67  2   0.42380   -361.200142947000   -147.314812036000   -462.484540597000
     201   67  2   0.42380   -360.444118425000   -146.653446506000   -463.772037802000
     202   68  1  -0.84760    -19.407528860400    823.233051431000    658.749183398000
     203   68  2   0.42380    -19.023516354400    823.176783668000    659.670795212000
     204   68  2   0.42380    -20.238193334200    822.678474432000    658.699778098000
     205   69  1  -0.84760   -769.867207077000   -732.726726144000    367.112351344000
     206   69  2   0.42380   -768.882379248000   -732.585941928000    367.213810459000
     207   69  2   0.42380   -770.233026448000   -733.137212380000    367.947622101000
     208   70  1  -0.84760   -494.728570610000   -143.295949467000    433.737192587000
     209   70  2   0.42380   -494.256302415000   -142.774952968000    433.026189493000
     210   70  2   0.42380   -494.874114408000   -144.233784340000    433.422100928000
     211   71  1  -0.84760   -112.251135803000   -658.297400448000    195.358398951000
     212   71  2   0.42380   -112.507493514000   -658.385272734000    196.320978395000
     213   71  2   0.42380   -112.430437735000   -657.363310963000    195.049647187000
     214   72  1  -0.84760    609.851338958000   -604.970058355000    128.851194206000
     215   72  2   0.42380    609.872569229000   -604.522123503000    127.957380107000
     216   72  2   0.42380    609.582477635000   -604.307136963000    129.549942241000
     217   73  1  -0.84760    499.700472881000     30.731860567300    726.459644881000
     218   73  2   0.42380    499.241783727000     30.791208947800    725.573032210000
     219   73  2   0.42380    499.582927523000     31.593109091400    726.954047621000
     220   74  1  -0.84760    -43.413344831600   -250.847266483000    239.439655310000
     221   74  2   0.42380    -44.146005686400   -250.416874866000    239.966884982000
     222   74  2   0.42380    -43.298650354300   -250.363554836000    238.571975519000
     223   75  1  -0.84760    700.472670009000    224.277710237000   -685.433456133000
     224   75  2   0.42380    701.467008801000    224.262759066000   -685.538655132000
     225   75  2   0.42380    700.180463870000    225.193265306000   -685.157096786000
     226   76  1  -0.84760    -46.845201681100   -411.255659070000   -576.364424119000
     227   76  2   0.42380    -47.336582469700   -411.374568387000   -577.227213488000
     228   76  2   0.42380    -47.204196341300   -410.455507891000   -575.883923417000
     229   77  1  -0.84760    455.816060727000   -450.872217154000    168.622098074000
     230   77  2   0.42380    455.287087801000   -450.776982828000    169.465376241000
     231   77  2   0.42380    456.781949018000   -451.000264602000    168.847183969000
     232   78  1  -0.84760    -77.030366733300    275.294823302000   -464.146876846000
     233   78  2   0.42380    -77.931692404500    275.382954985000   -463.722795673000
     234   78  2   0.42380    -76.634482344400    274.408347172000   -463.907219545000
     235   79  1  -0.84760    489.118350973000    187.367416101000   -768.527503048000
     236   79  2   0.42380    489.305573326000    186.496252206000   -768.073607401000
     237   79  2   0.42380    489.478979210000    188.116832531000   -767.972235284000
     238   80  1  -0.84760    -14.401505872700   -648.925516345000   -273.674113680000
     239   80  2   0.42380    -13.973860133900   -648.142568877000   -273.222325693000
     240   80  2   0.42380    -13.898208207000   -649.758585100000   -273.444575211000
     241   81  1  -0.84760   -815.951699640000   -452.934883391000    762.053575559000
     242   81  2   0.42380   -815.503153292000   -452.735089672000    762.924717708000
     243   81  2   0.42380   -815.347432203000   -453.496828966000    761.488705631000
     244   82  1  -0.84760    265.794585021000   -249.037719828000   -270.986962208000
     245   82  2   0.42380    264.892680729000   -248.807946102000   -270.621212727000
     246   82  2   0.42380    266.014806826000   -248.420971358000   -271.742689461000
     247   83  1  -0.84760    642.120174152000    243.361567633000    622.019517184000
     248   83  2   0.42380    641.635939039000    243.021083896000    622.825486899000
     249   83  2   0.42380    641.475708121000    243.834130197000    621.418394769000
     250   84  1  -0.84760    681.612742285000   -797.579046090000    795.620775341000
     251   84  2   0.42380    682.192378715000   -798.343508083000    795.338606116000
     252   84  2   0.42380    681.695356923000   -796.835478120000    794.957238232000
     253   85  1  -0.84760    409.674522763000   -283.178372886000   -373.221715954000
     254   85  2   0.42380    409.673875889000   -284.008138875000   -372.663604868000
     255   85  2   0.42380    408.733919651000   -282.867063896000   -373.357187347000
     256   86  1  -0.84760   -550.448454971000    224.370584983000    123.085698980000
     257   86  2   0.42380   -550.176051425000    223.491881275000    122.693683544000
     258   86  2   0.42380   -550.072568767000    224.454731034000    124.008536455000
     259   87  1  -0.84760    322.444277179000    563.188207209000   -153.649636365000
     260   87  2   0.42380    323.337022917000    563.339274969000   -153.225156000000
     261   87  2   0.42380    322.383992597000    563.716976448000   -154.496258394000
     262   88  1  -0.84760    724.321612272000   -491.200612115000     13.998262962100
     263   88  2   0.42380    723.432852817000   -491.565798214000     14.275293185000
     264   88  2   0.42380    724.201738485000   -490.589969098000     13.215482417600
     265   89  1  -0.84760    331.159294109000    457.240074660000   -233.708572098000
     266   89  2   0.42380    331.077407815000    457.045061907000   -232.731195681000
     267   89  2   0.42380    331.522304157000    458.163244324000   -233.834989965000
     268   90  1  -0.84760    292.074182956000    361.315714457000    460.849711208000
     269   90  2   0.42380    291.427295425000    360.715284219000    461.319838905000
     270   90  2   0.42380    292.357463270000    362.049311369000    461.467439170000
     271   91  1  -0.84760   -129.263745700000    747.350027550000   -453.334079801000
     272   91  2   0.42380   -129.352597045000    747.213927581000   -452.347377092000
     273   91  2   0.42380   -128.333806870000    747.118846613000   -453.620032852000
     274   92  1  -0.84760    -16.661229673100    174.702232986000   -359.033737270000
     275   92  2   0.42380    -17.467027850600    174.665611139000   -359.624794067000
     276   92  2   0.42380    -16.055109392600    175.435614425000   -359.341584424000
     277   93  1  -0.84760   -820.152109176000    763.823270926000    783.413237340000
     278   93  2   0.42380   -820.690120062000    764.094113766000    784.211478183000
     279   93  2   0.42380   -819.754258031000    762.919401606000    783.570510091000
     280   94  1  -0.84760    471.046950610000    672.195855066000    780.957765783000
     281   94  2   0.42380    471.497982259000    673.052705728000    780.708011117000
     282   94  2   0.42380    471.390035823000    671.457151738000    780.377584837000
     283   95  1  -0.84760   -713.327663565000    744.820590002000   -149.467292775000
     284   95  2   0.42380   -713.514838077000    745.792783623000   -149.608023951000
     285   95  2   0.42380   -714.191406205000    744.320945299000   -149.401689251000
     286   96  1  -0.84760   -377.828713590000   -332.587142594000   -693.972287723000
     287   96  2   0.42380   -377.918399552000   -331.721751760000   -693.479281503000
     288   96  2   0.42380   -378.683354759000   -333.101452634000   -693.901058132000
     289   97  1  -0.84760    -31.807487706400   -711.646648584000    178.415831468000
     290   97  2   0.42380    -32.412694993800   -711.152829967000    177.791437912000
     291   97  2   0.42380    -32.173381458100   -712.562751042000    178.579776728000
     292   98  1  -0.84760    767.153277917000    208.917814734000   -705.185317697000
     293   98  2   0.42380    768.086650456000    209.061688862000   -705.514127578000
     294   98  2   0.42380    766.828050008000    209.747578272000   -704.731754826000
     295   99  1  -0.84760   -289.274504932000   -341.367555866000    256.085521627000
     296   99  2   0.42380   -288.356830634000   -341.109635207000    255.783278653000
     297   99  2   0.42380   -289.328727284000   -342.362065822000    256.175019574000
     298  100  1  -0.84760   -718.049845770000     44.564263434100   -163.807030802000
     299  100  2   0.42380   -718.098622124000     45.191189596100   -163.029480511000
     300  100  2   0.42380   -717.100911888000     44.485220100800   -164.112443046000
     301  101  1  -0.84760   -665.149111083000   -245.733361894000    290.217936291000
     302  101  2   0.42380   -664.913075606000   -246.671035589000    290.472995687000
     303  101  2   0.42380   -664.321328723000   -245.244317689000    289.942959691000
     304  102  1  -0.84760   -142.396331315000   -461.877576769000      0.270456004816
     305  102  2   0.42380   -142.674119777000   -462.737654392000     -0.157445913745
     306  102  2   0.42380   -142.920813191000   -461.123734643000     -0.125322735261
     307  103  1  -0.84760   -765.264072523000   -647.175127960000   -111.677544906000
     308  103  2   0.42380   -765.506094148000   -647.691322572000   -112.499109666000
     309  103  2   0.42380   -765.789009050000   -647.521037144000   -110.899863429000
     310  104  1  -0.84760   -709.415687735000   -604.821715052000    432.173312187000
     311  104  2   0.42380   -708.780346654000   -605.543926676000    432.446720454000
     312  104  2   0.42380   -708.901872749000   -604.050280842000    431.797967785000
     313  105  1  -0.84760    -13.138245534500    626.899683274000    269.787693459000
     314  105  2   0.42380    -13.271976691200    626.788050388000    270.772403607000
     315  105  2   0.42380    -12.379011531000    626.322552899000    269.486887444000
     316  106  1  -0.84760   -577.516533372000    581.734023443000   -484.652164364000
     317  106  2   0.42380   -577.021062260000    582.440591317000   -484.146921633000
     318  106  2   0.42380   -578.438930902000    582.058701885000   -484.861369303000
     319  107  1  -0.84760    713.203999208000   -745.341383743000   -330.103243922000
     320  107  2   0.42380    712.204268049000   -745.320631381000   -330.092902302000
     321  107  2   0.42380    713.516992422000   -745.969669812000   -330.815488166000
     322  108  1  -0.84760   -513.147481816000   -569.053832777000    747.401518496000
     323  108  2   0.42380   -512.747639714000   -569.880849553000    747.796701423000
     324  108  2   0.42380   -514.134222005000   -569.050327096000    747.563788363000
     325  109  1  -0.84760    644.795113310000    404.427784943000   -642.490122654000
     326  109  2   0.42380    645.602480540000    403.918925611000   -642.788820386000
     327  109  2   0.42380    644.600044239000    404.211728874000   -641.533426342000
     328  110  1  -0.84760    681.267398334000   -377.115476390000    492.020809609000
     329  110  2   0.42380    680.531532536000   -376.794981852000    491.424332636000
     330  110  2   0.42380    681.618885269000   -376.348722820000    492.557974292000
     331  111  1  -0.84760    615.280855410000    728.237647447000    388.107922700000
     332  111  2   0.42380    614.883964227000    728.556592735000    388.968591795000
     333  111  2   0.42380    615.228194734000    727.239910905000    388.066105889000
     334  112  1  -0.84760   -272.127802120000   -786.399495401000   -802.663421390000
     335  112  2   0.42380   -272.331387435000   -785.793718639000   -801.894274112000
     336  112  2   0.42380   -272.201581300000   -785.887726715000   -803.519370831000
     337  113  1  -0.84760   -116.272110476000    327.135523533000   -199.783147697000
     338  113  2   0.42380   -116.187988482000    327.663709341000   -200.628099319000
     339  113  2   0.42380   -115.361631184000    326.881416979000   -199.456869722000
     340  114  1  -0.84760    580.797837848000    696.507150915000   -504.145600654000