LAMMPS Atom File

         4500 atoms
         3000 bonds
         1500 angles
           0 dihedrals
           0 impropers

           2 atom types
           1 bond types
           1 angle types

         0.0  40.0216087475 xlo xhi
         0.0  40.0216087475 ylo yhi
         0.0  40.0216087475 zlo zhi

Masses

         1   15.9994
         2   1.00794

Atoms

       1    1  1  -0.84760    -16.430004303400      5.355390329070    -17.886616271600
       2    1  2   0.42380    -17.364621161300      5.667773308510    -18.056640396700
       3    1  2   0.42380    -16.406975281200      4.815127831700    -17.045434901100
       4    2  1  -0.84760    -16.077171935100    -15.057105520000    -14.060995115300
       5    2  2   0.42380    -17.018477696100    -14.757535542500    -13.905427467800
       6    2  2   0.42380    -15.720392729300    -14.619944890800    -14.886585317900
       7    3  1  -0.84760     17.714218025100    -11.256902274700      6.370067518600
       8    3  2   0.42380     18.464992326700    -11.875553058200      6.601604029890
       9    3  2   0.42380     17.014261611900    -11.758019577200      5.861203618470
      10    4  1  -0.84760      6.319309786770      7.283536136160     -6.966860846140
      11    4  2   0.42380      6.343285490750      7.974945189400     -7.688926415680
      12    4  2   0.42380      7.235185269990      7.172652192740     -6.581015215970
      13    5  1  -0.84760     -6.342851146340    -11.695533486100      4.960980901110
      14    5  2   0.42380     -5.378330834290    -11.825270850400      5.190913030100
      15    5  2   0.42380     -6.765648132810    -11.084139091700      5.629890164560
      16    6  1  -0.84760    -13.800444693100     -4.241798075870     19.640274601200
      17    6  2   0.42380    -13.335982545400     -4.240955378990     18.754682029400
      18    6  2   0.42380    -14.681630466400     -3.776793221110     19.554939274800
      19    7  1  -0.84760     17.904573855200     18.287285947000    -12.255663155400
      20    7  2   0.42380     17.566073953500     18.232042609300    -13.195006537900
      21    7  2   0.42380     17.961553319800     19.246201963400    -11.977754152200
      22    8  1  -0.84760    -13.003507697500      0.696056190860     12.670266521900
      23    8  2   0.42380    -13.856933122100      1.114614259550     12.980869464200
      24    8  2   0.42380    -12.841553376600     -0.148638778459     13.180424543200
      25    9  1  -0.84760     -8.013190547000    -15.783282388400      3.085648672910
      26    9  2   0.42380     -7.579999731970    -16.197339986900      2.285085107140
      27    9  2   0.42380     -7.935842935610    -16.404736981700      3.865271360760
      28   10  1  -0.84760     -0.159702015529      9.791911584300     10.228663274900
      29   10  2   0.42380     -0.072711632759      9.277274299990     11.081646943500
      30   10  2   0.42380     -0.557169364835      9.204273757030      9.523892751850
      31   11  1  -0.84760    -14.700930674500     10.680266299200     14.961993638500
      32   11  2   0.42380    -14.873115545400     11.664736009700     14.996224610500
      33   11  2   0.42380    -14.556561033600     10.399942552200     14.013006808500
      34   12  1  -0.84760      2.733306796350     -0.945564607820     15.353767848500
      35   12  2   0.42380      2.861062688690     -0.336439896425     16.136484603100
      36   12  2   0.42380      2.872027014410     -0.433001318311     14.506398050100
      37   13  1  -0.84760     -8.039764701160    -15.415414310200     -4.292829852700
      38   13  2   0.42380     -8.745801614640    -15.279580304400     -3.597803954140
      39   13  2   0.42380     -7.664130555230    -14.529209278900     -4.564011767400
      40   14  1  -0.84760    -19.293890647400      9.806656763890      0.923523936279
      41   14  2   0.42380    -19.034034366600     10.426662389000      1.663839908140
      42   14  2   0.42380    -18.671038493200      9.930401153340      0.151032822962
      43   15  1  -0.84760      2.713582020820      3.856956704630     13.535901940000
      44   15  2   0.42380      2.219207691810      4.002129278780     14.392942748000
      45   15  2   0.42380      2.397623839570      3.010062066250     13.108187199500
      46   16  1  -0.84760     -8.625388957670      6.071915443260      4.420696698320
      47   16  2   0.42380     -9.322400166440      6.499141025040      3.844802891170
      48   16  2   0.42380     -8.258102052440      5.265715467170      3.956862754100
      49   17  1  -0.84760     10.253241653900     -1.698748822330     13.948793142500
      50   17  2   0.42380     10.541452351800     -2.409816816470     14.590133069000
      51   17  2   0.42380     10.697242056100     -1.847051094940     13.065124608000
      52   18  1  -0.84760     -5.423704979660     -0.662406327853     -6.145374406620
      53   18  2   0.42380     -5.493006041770     -1.172564927480     -5.288090576130
      54   18  2   0.42380     -5.105772904140     -1.272210835980     -6.871361773740
      55   19  1  -0.84760     -6.280304330580     16.822573035000     10.968387137500
      56   19  2   0.42380     -5.566864044610     16.328432155100     10.471569516000
      57   19  2   0.42380     -6.856202265310     16.170224100700     11.461116715100
      58   20  1  -0.84760     12.889596973100     -6.989925067610    -17.250802111500
      59   20  2   0.42380     13.479168833900     -6.880188609180    -16.450575312000
      60   20  2   0.42380     11.968886774500     -6.665821962750    -17.033431672700
      61   21  1  -0.84760    -16.481505635800      8.900375130160    -13.915022051200
      62   21  2   0.42380    -15.781392805800      9.594465302270    -13.747448609700
      63   21  2   0.42380    -17.379150877300      9.266287612530    -13.669377845700
      64   22  1  -0.84760    -12.015424118300    -13.481683585500     19.158006001700
      65   22  2   0.42380    -12.770829748100    -14.111420505000     19.339096439600
      66   22  2   0.42380    -11.384499141500    -13.486122629500     19.933837148600
      67   23  1  -0.84760     15.731054496500    -10.627235813200     10.728456244600
      68   23  2   0.42380     16.429010875900    -10.551348749600     11.440564414700
      69   23  2   0.42380     16.166660402200    -10.587427404500      9.829199448370
      70   24  1  -0.84760     -8.369358376370     -6.448086118700    -13.989564803700
      71   24  2   0.42380     -9.215788281560     -6.966404258600    -14.111641506900
      72   24  2   0.42380     -8.224517899380     -6.270818870970    -13.016118575500
      73   25  1  -0.84760      9.083085477100      8.030413699800      1.821647478680
      74   25  2   0.42380      8.432029868860      7.294576043470      1.635449899460
      75   25  2   0.42380      8.893932278070      8.422992138900      2.721704830440
      76   26  1  -0.84760      5.222147143460     -2.684491498490      2.404681850720
      77   26  2   0.42380      4.439867990720     -2.847440135580      1.803443903770
      78   26  2   0.42380      5.618423216530     -3.560126842090      2.680776071890
      79   27  1  -0.84760     -6.142528843320     10.925315661000     -2.654126102300
      80   27  2   0.42380     -5.370906750740     11.012359094900     -2.024028659960
      81   27  2   0.42380     -5.961850153740     11.461778762600     -3.478481942750
      82   28  1  -0.84760     -0.288389182456     15.140619584200     -1.212753605660
      83   28  2   0.42380      0.011530152714     16.055301339100     -0.941818780209
      84   28  2   0.42380      0.092383028263     14.917135941500     -2.110009190750
      85   29  1  -0.84760     -5.493399692950    -17.321701325800    -15.012191945900
      86   29  2   0.42380     -5.368623015320    -17.204955438200    -14.026899513000
      87   29  2   0.42380     -5.629952627610    -16.427779250400    -15.439107182500
      88   30  1  -0.84760     12.952631483700      1.016618462750      9.477636541910
      89   30  2   0.42380     11.977707240500      0.805227109629      9.408092197450
      90   30  2   0.42380     13.479488294200      0.326995148924      8.980804994780
      91   31  1  -0.84760      3.406234873030    -19.934401045400      5.388042218130
      92   31  2   0.42380      2.904962813120    -19.388566114400      4.716632842200
      93   31  2   0.42380      3.173922769700    -19.624387926200      6.309954878070
      94   32  1  -0.84760    -13.631576290200     -8.458112874010    -13.368273397500
      95   32  2   0.42380    -13.535301382100     -7.681886296420    -12.745213655300
      96   32  2   0.42380    -14.261007221600     -9.126954283650    -12.972713198100
      97   33  1  -0.84760     -6.996091136450     -9.220274228440     -9.713610011990
      98   33  2   0.42380     -6.697810890370     -8.808464049260     -8.852540170970
      99   33  2   0.42380     -7.208730340540    -10.186061182100     -9.565150829120
     100   34  1  -0.84760    -13.951383655500     11.371292487100     10.957845691200
     101   34  2   0.42380    -13.799552830100     11.997930763800     10.193468905500
     102   34  2   0.42380    -13.522061872700     10.490695667200     10.757266411000
     103   35  1  -0.84760     10.245523993300    -16.037213212200    -13.321330342000
     104   35  2   0.42380      9.971211729290    -16.450371574300    -14.189692564600
     105   35  2   0.42380      9.837306509140    -15.127852110600    -13.241199994600
     106   36  1  -0.84760      1.050508174850     10.255795181700     19.328483543900
     107   36  2   0.42380      1.193826556330     11.234419403100     19.180989561500
     108   36  2   0.42380      0.561769554826     10.116580737500     20.189734900855
     109   37  1  -0.84760      7.814741525420      5.988681170220     -2.254294278710
     110   37  2   0.42380      8.508816008080      5.386711572880     -1.859461128630
     111   37  2   0.42380      8.017959573020      6.936872133540     -2.010088786960
     112   38  1  -0.84760     19.701614532500    -14.551508941100    -16.004948756200
     113   38  2   0.42380     19.734679818800    -13.922463493400    -16.781613749300
     114   38  2   0.42380     20.158382364755    -14.134920789700    -15.218935105200
     115   39  1  -0.84760      4.246353096600     16.030661696700    -17.330312114100
     116   39  2   0.42380      4.243219736380     17.014541352500    -17.509116490200
     117   39  2   0.42380      5.140111564720     15.651252346400    -17.569570020200
     118   40  1  -0.84760      7.505186239310     14.734678353100     18.688159360200
     119   40  2   0.42380      7.559852522820     15.324936224000     19.493520920800
     120   40  2   0.42380      8.310911725520     14.879104848000     18.113748855000
     121   41  1  -0.84760    -12.435867444600    -14.005776202800     14.575806072600
     122   41  2   0.42380    -13.138962145800    -14.679574590300     14.348531845500
     123   41  2   0.42380    -12.548065065000    -13.714469391300     15.525833459400
     124   42  1  -0.84760     18.164239240200    -17.965612287400    -12.281140144300
     125   42  2   0.42380     18.999638920700    -17.462075782700    -12.060780523700
     126   42  2   0.42380     18.403841756300    -18.864174293900    -12.648804331800
     127   43  1  -0.84760    -11.691985842200      1.461905558090     -9.842750976140
     128   43  2   0.42380    -12.233072140200      2.300923549570     -9.899973594730
     129   43  2   0.42380    -11.534029726300      1.232001133350     -8.882441744200
     130   44  1  -0.84760     -6.756004547300      3.151610597350    -12.643428791000
     131   44  2   0.42380     -6.853321356660      3.270317614040    -13.631577607100
     132   44  2   0.42380     -6.257877835660      2.304806130500    -12.456902722900
     133   45  1  -0.84760      3.909188544150      7.773163794650     12.282506610500
     134   45  2   0.42380      4.244654001660      8.607710983500     11.845478103000
     135   45  2   0.42380      4.463241933650      7.574392498870     13.090909241400
     136   46  1  -0.84760     -0.109673586736     11.806230434800      5.738122617480
     137   46  2   0.42380      0.624509697209     12.309561131900      6.193790385650
     138   46  2   0.42380      0.022272428151     11.848139548400      4.747752042720
     139   47  1  -0.84760      9.383596720730    -11.405296373500     10.345092003900
     140   47  2   0.42380      8.831700097070    -11.625004637500      9.540642878430
     141   47  2   0.42380      8.844998939000    -10.847524512800     10.976600500200
     142   48  1  -0.84760     11.858877265300    -12.411657067700    -18.179671881100
     143   48  2   0.42380     11.453830941000    -12.999989120400    -17.479812701800
     144   48  2   0.42380     12.039587598600    -11.507911725800    -17.791615013700
     145   49  1  -0.84760     -4.665324767870      1.271749817970    -19.273609165200
     146   49  2   0.42380     -5.156033892540      1.160106860120    -18.409467738800
     147   49  2   0.42380     -4.288453990470      2.196542013190    -19.325837632500
     148   50  1  -0.84760    -13.458672208200      7.919615294930     -6.747676607960
     149   50  2   0.42380    -13.484765108100      7.242373402950     -7.482974221400
     150   50  2   0.42380    -12.731065587400      8.581091046750     -6.929441387810
     151   51  1  -0.84760     12.237562974800     14.380467799000     16.534863923600
     152   51  2   0.42380     12.724952297500     13.524288199800     16.363375900200
     153   51  2   0.42380     11.351754337000     14.358355990900     16.071340326500
     154   52  1  -0.84760      8.315980383580     -4.709179986640     -3.743133979830
     155   52  2   0.42380      9.167769537090     -5.229571672500     -3.682737529100
     156   52  2   0.42380      7.656721835130     -5.212588119000     -4.301666358980
     157   53  1  -0.84760    -11.059915998600     -7.793876220470      3.263761002800
     158   53  2   0.42380    -10.682646050300     -7.789188126790      4.189852471220
     159   53  2   0.42380    -11.820737204500     -8.441155663500      3.217066086220
     160   54  1  -0.84760     -2.645199946040     -4.404063586460      0.779475122598
     161   54  2   0.42380     -1.937229784800     -4.941823989200      1.237287311220
     162   54  2   0.42380     -3.531272322220     -4.588856381680      1.204595537310
     163   55  1  -0.84760     19.358229371700     -5.255378799660     -6.236173890650
     164   55  2   0.42380     19.338300177400     -6.251917451330     -6.316880414150
     165   55  2   0.42380     18.438031265000     -4.918675628290     -6.036508122750
     166   56  1  -0.84760     -8.092730148710     -6.187479231240     18.728581606200
     167   56  2   0.42380     -7.798507731780     -6.659594400220     19.559569233500
     168   56  2   0.42380     -8.780082277590     -6.739888819890     18.256998424500
     169   57  1  -0.84760      3.406618455990     10.075512701100     10.655336373500
     170   57  2   0.42380      2.585030585640      9.712850122040     11.095187740400
     171   57  2   0.42380      3.274322435100     10.092286702400      9.664268063130
     172   58  1  -0.84760     -8.585383715450      3.878227934660     17.093771645000
     173   58  2   0.42380     -9.113432229160      3.208527897800     16.571596743500
     174   58  2   0.42380     -7.918790709000      3.402726591710     17.667838049400
     175   59  1  -0.84760     -1.881052015080     16.023985806500     13.807270497500
     176   59  2   0.42380     -1.283543407580     16.197447669000     14.590146251500
     177   59  2   0.42380     -2.435886885040     15.211243511000     13.985057527600
     178   60  1  -0.84760     -8.231840334320     18.965405165600     -1.659729368750
     179   60  2   0.42380     -9.060845036540     18.417356584300     -1.771057515270
     180   60  2   0.42380     -7.428313891880     18.379517436200     -1.764994865610
     181   61  1  -0.84760    -10.473686028200    -18.078082921000      3.944099210950
     182   61  2   0.42380    -10.222615969400    -19.003444575700      4.228123212730
     183   61  2   0.42380    -10.673607602700    -17.524079226800      4.752252210650
     184   62  1  -0.84760     -8.692967013420     17.534969819200    -16.544983218600
     185   62  2   0.42380     -8.456002378390     17.941091402300    -17.427543710300
     186   62  2   0.42380     -7.925109485270     17.639660888800    -15.912974835500
     187   63  1  -0.84760    -11.712132612100      9.513755784850    -14.420281375100
     188   63  2   0.42380    -11.320108505100      9.019656137930    -13.644277097800
     189   63  2   0.42380    -12.688276601600      9.662408611590    -14.262024467300
     190   64  1  -0.84760    -10.994306830600     -1.220362250600     -8.745270550330
     191   64  2   0.42380    -10.107894120000     -1.518851311890     -9.099073866750
     192   64  2   0.42380    -11.711556986400     -1.826718927770     -9.088612645200
     193   65  1  -0.84760     -2.106328562510    -18.711749954700     14.689628875700
     194   65  2   0.42380     -1.654643015810    -18.970369133200     13.835757522800
     195   65  2   0.42380     -1.683872209930    -17.880870125400     15.051801955100
     196   66  1  -0.84760    -18.316430467000    -16.260340562200     10.838096420600
     197   66  2   0.42380    -17.510919463700    -16.294208371700     11.429708620500
     198   66  2   0.42380    -18.641979646400    -15.317132286100     10.771945987500
     199   67  1  -0.84760    -11.641586414300     -4.073048813870     10.722920406800
     200   67  2   0.42380    -12.083621957300     -3.738936968730     11.555370918000
     201   67  2   0.42380    -11.259275525800     -4.981802753350     10.890266341800
     202   68  1  -0.84760     -4.216412812500    -14.116807447900      4.569170438140
     203   68  2   0.42380     -4.725822311510    -13.785366125400      3.775036562770
     204   68  2   0.42380     -3.501802067120    -14.747771596900      4.267151025940
     205   69  1  -0.84760     15.538516603500    -13.500913206000      2.175448024910
     206   69  2   0.42380     14.769915192400    -13.835008559600      1.629891276680
     207   69  2   0.42380     16.342167957300    -13.395651196900      1.589731018980
     208   70  1  -0.84760     11.888455126100      3.191952654770     16.399356788900
     209   70  2   0.42380     10.930528526700      3.321805181900     16.143397902700
     210   70  2   0.42380     12.424121412200      2.970487810600     15.584485662400
     211   71  1  -0.84760     -1.124897901600     -4.357120450920      5.877981877900
     212   71  2   0.42380     -0.435229377557     -4.973713730040      5.498284557530
     213   71  2   0.42380     -0.926785232230     -4.189676878760      6.843753082880
     214   72  1  -0.84760     16.807846857100      7.565940312380    -12.746507745800
     215   72  2   0.42380     16.060936486600      7.029034242320    -12.354261942300
     216   72  2   0.42380     17.305434956800      7.008816445010    -13.411352900300
     217   73  1  -0.84760     -2.694972466900     -7.983824518700    -14.668270033100
     218   73  2   0.42380     -3.154539086300     -7.941020464550    -15.555381263600
     219   73  2   0.42380     -2.564156124320     -8.940034011510    -14.406448547400
     220   74  1  -0.84760     -2.918265322600      3.556279487760    -14.690747065500
     221   74  2   0.42380     -3.426341170310      2.799502971720    -14.279470713500
     222   74  2   0.42380     -2.445108269820      4.068562582060    -13.974026454200
     223   75  1  -0.84760     12.678325897200      4.908092582850    -15.861542347300
     224   75  2   0.42380     12.924935723200      3.947260991000    -15.735105620800
     225   75  2   0.42380     12.609237084000      5.108664960560    -16.838782060600
     226   76  1  -0.84760     -1.370099720210    -14.272917700700     -8.616248851730
     227   76  2   0.42380     -0.669469499698    -14.966668668100     -8.449434915420
     228   76  2   0.42380     -1.884713293860    -14.510293961700     -9.440157451360
     229   77  1  -0.84760    -16.405906812000     -9.430845718480     18.410104185800
     230   77  2   0.42380    -15.500767831500     -9.855176257480     18.435930908000
     231   77  2   0.42380    -16.644113219700     -9.097928512810     19.322476829800
     232   78  1  -0.84760      4.656223078620     -4.913151651310     -6.878452721070
     233   78  2   0.42380      5.237692336410     -5.319145212600     -7.583479479730
     234   78  2   0.42380      4.594964620550     -3.925812939680     -7.024773156480
     235   79  1  -0.84760     15.901815361900      8.284423984600     14.113795396100
     236   79  2   0.42380     15.292757841700      8.871302268200     13.580294864400
     237   79  2   0.42380     15.403230508200      7.909561723560     14.895390834200
     238   80  1  -0.84760     19.758864396600    -19.175307187600    -16.370462159900
     239   80  2   0.42380     20.259857380655    -19.450844985900    -15.550044612700
     240   80  2   0.42380     19.557194878000    -18.196909739000    -16.324988674700
     241   81  1  -0.84760     10.011289387300     -8.145617667000     -7.507683403050
     242   81  2   0.42380     10.271467476100     -7.654827026630     -6.676159555270
     243   81  2   0.42380      9.081088918920     -8.499108960530     -7.408835064510
     244   82  1  -0.84760    -11.814111479500      5.336469909850      2.163857260330
     245   82  2   0.42380    -11.910862483000      5.652177212760      1.219946172240
     246   82  2   0.42380    -12.577426792500      4.732530206370      2.393218476540
     247   83  1  -0.84760      5.900010393270     14.176966831800     -2.335384092340
     248   83  2   0.42380      5.914679158830     14.067944355900     -1.341453044900
     249   83  2   0.42380      5.170252187100     13.612951084800     -2.721828393210
     250   84  1  -0.84760     19.142158024000    -13.025264244500     -1.642047374750
     251   84  2   0.42380     19.871937994400    -12.350862385700     -1.754311917880
     252   84  2   0.42380     19.097300971000    -13.606242542700     -2.454729392470
     253   85  1  -0.84760      7.867780435230     12.692647595200     -3.712215409100
     254   85  2   0.42380      7.710380974780     13.143108342100     -4.591027405700
     255   85  2   0.42380      7.694539172520     13.340084214100     -2.970047443370
     256   86  1  -0.84760      8.713921112610      9.943700090650      9.168179909210
     257   86  2   0.42380      8.101015964570     10.370426405700      8.503159660250
     258   86  2   0.42380      9.522584241610     10.518581146300      9.292982616170
     259   87  1  -0.84760     -4.650191238220     19.934367121600    -12.539629366200
     260   87  2   0.42380     -3.745425926380     19.851927966200    -12.957485221900
     261   87  2   0.42380     -4.958437989060     19.034241751400    -12.231801072300
     262   88  1  -0.84760     -1.451575628260      3.925097444180     -7.126301465080
     263   88  2   0.42380     -0.661385782830      3.952757425110     -7.738539109820
     264   88  2   0.42380     -1.425722378240      4.714410970510     -6.512855651160
     265   89  1  -0.84760     17.511466479600     18.722013983300     18.914273090300
     266   89  2   0.42380     16.599898661900     18.341433860000     19.069845849600
     267   89  2   0.42380     17.624097199000     18.930947303000     17.942850839700
     268   90  1  -0.84760     11.419888237800     16.292426576300     18.905799000300
     269   90  2   0.42380     10.466569381200     16.008039091000     18.804276018200
     270   90  2   0.42380     11.927715948200     16.058065699000     18.076832176000
     271   91  1  -0.84760    -13.812986738600     16.524690263400     -3.899867430130
     272   91  2   0.42380    -13.626563340900     15.592835691700     -4.211144435210
     273   91  2   0.42380    -13.600673416900     16.599383128400     -2.925524559590
     274   92  1  -0.84760     -9.331662497590     -6.801092406760    -18.288138921200
     275   92  2   0.42380     -9.198194110720     -5.812744807700    -18.214959599400
     276   92  2   0.42380    -10.288957333900     -6.993053310630    -18.504327745500
     277   93  1  -0.84760      0.816512479819     17.968613303600      2.199984503820
     278   93  2   0.42380      0.063847764336     18.526838897200      2.549097684210
     279   93  2   0.42380      1.675556758890     18.472152043400      2.292134729630
     280   94  1  -0.84760     -6.984300912100     -8.210149005680      6.124809906810
     281   94  2   0.42380     -7.735069000160     -8.076383897620      5.477929567170
     282   94  2   0.42380     -6.121503268010     -8.280454912950      5.624173007690
     283   95  1  -0.84760    -19.055521103200      3.025843599570     -4.512812803860
     284   95  2   0.42380    -19.512203031200      2.861175210900     -3.638555439890
     285   95  2   0.42380    -18.701119435100      2.162315282580     -4.871586135300
     286   96  1  -0.84760    -16.508763330500     -6.436439070400      7.829729183920
     287   96  2   0.42380    -15.744269422000     -6.151973465330      7.251258455790
     288   96  2   0.42380    -16.158118494900     -6.921773080720      8.630665571950
     289   97  1  -0.84760     -1.949057547100     -7.078633200230      3.614728882950
     290   97  2   0.42380     -2.645908143490     -7.596558946960      3.118591636650
     291   97  2   0.42380     -2.392989396190     -6.433038479300      4.236124062900
     292   98  1  -0.84760     19.571324994900    -16.096873015900     -3.542657232750
     293   98  2   0.42380     19.399399686000    -16.262709105900     -4.513708250690
     294   98  2   0.42380     18.793219800500    -16.423162504100     -3.005919423140
     295   99  1  -0.84760     -0.232602273334     15.224687243400      6.686055569570
     296   99  2   0.42380      0.451154954879     15.205599748400      7.415515452230
     297   99  2   0.42380     -0.322756921252     16.157833814700      6.338047500900
     298  100  1  -0.84760    -14.419321360300     10.581774962700    -14.107991980800
     299  100  2   0.42380    -13.774377278000     11.304382619500    -14.356759553200
     300  100  2   0.42380    -15.008001627400     10.376731553600    -14.889920841700
     301  101  1  -0.84760     16.516554938800    -16.749501206900     -9.769298932540
     302  101  2   0.42380     16.694932516900    -16.970277346700    -10.728172926200
     303  101  2   0.42380     16.167107647500    -17.560443621600     -9.299981352820
     304  102  1  -0.84760     12.900017316500     13.903379235400      9.005368730840
     305  102  2   0.42380     12.439837253700     13.077278705000      8.680111565560
     306  102  2   0.42380     13.451479524400     14.290585308100      8.266477067250
     307  103  1  -0.84760    -15.525770151200      8.378258543870     16.589928159800
     308  103  2   0.42380    -15.368142584700      9.267587637500     16.160687768500
     309  103  2   0.42380    -14.770719914400      8.169657766610     17.211526788900
     310  104  1  -0.84760     13.771765613700     19.648091813900    -17.973590905800
     311  104  2   0.42380     13.093813423700     18.914554363800    -18.021587128000
     312  104  2   0.42380     14.261173774600     19.593214630700    -17.103264445900
     313  105  1  -0.84760    -12.635148240800      9.949514710160      0.557307770379
     314  105  2   0.42380    -12.787686443800      8.965340102880      0.647487807065
     315  105  2   0.42380    -13.396413685400     10.360195716900      0.055495022935
     316  106  1  -0.84760     17.733616990400     16.099987937200      4.343929824800
     317  106  2   0.42380     17.907154437700     16.642243960500      5.166026631480
     318  106  2   0.42380     18.459008238000     15.420565175000      4.233511310750
     319  107  1  -0.84760     -1.299136440040     -0.511581273296      5.194137833720
     320  107  2   0.42380     -1.014665303270     -0.800036518708      6.108396956580
     321  107  2   0.42380     -0.525900424036     -0.588508352952      4.564702937990
     322  108  1  -0.84760     -0.796031777959    -12.556408535100      2.476352022470
     323  108  2   0.42380     -1.463340597020    -13.048357428700      1.917169381440
     324  108  2   0.42380     -0.949474260735    -11.572070622600      2.389551800320
     325  109  1  -0.84760     -9.846718919930     -6.169344685380    -11.170224183100
     326  109  2   0.42380    -10.394613440700     -6.592285857600    -10.448467743000
     327  109  2   0.42380     -9.294592895940     -5.432076306230    -10.780875764900
     328  110  1  -0.84760     12.272601464000     -2.579699828240      0.616234676647
     329  110  2   0.42380     12.857349485300     -2.358670862160     -0.164288191530
     330  110  2   0.42380     12.416592882400     -3.533161121960      0.881146044457
     331  111  1  -0.84760     -3.908773289900     15.365806315500    -11.035317773100
     332  111  2   0.42380     -3.046958736340     15.780821674900    -10.743705141800
     333  111  2   0.42380     -4.431239546390     16.026415533700    -11.574413749300
     334  112  1  -0.84760    -15.588360617700     -1.810088280090     19.205022778500
     335  112  2   0.42380    -16.214939828400     -2.563061177780     19.406095670900
     336  112  2   0.42380    -15.991954274300     -0.948997365970     19.514271219000
     337  113  1  -0.84760      0.407918938952     -1.807140909240      8.027206799620
     338  113  2   0.42380      1.069976452550     -1.073121495670      7.875894707590
     339  113  2   0.42380     -0.030429472937     -1.682373111140      8.917309976980
     340  114  1  -0.84760     -2.476593016520     13.704880873600     19.060400741300