LAMMPS Atom File

         4500 atoms
         3000 bonds
         1500 angles
           0 dihedrals
           0 impropers

           2 atom types
           1 bond types
           1 angle types

         0.0  48.2288853613 xlo xhi
         0.0  48.2288853613 ylo yhi
         0.0  48.2288853613 zlo zhi

Masses

         1   15.9994
         2   1.00794

Atoms

       1    1  1  -0.84760    -18.605404632300      6.138936124760    -19.846577680500
       2    1  2   0.42380    -19.118674131900      5.814970889080    -19.051844425300
       3    1  2   0.42380    -17.680065603000      5.760554097530    -19.822604315600
       4    2  1  -0.84760    -23.019335793500    -12.928862352200    -11.247433332900
       5    2  2   0.42380    -23.927343348500    -13.323922036200    -11.107969624400
       6    2  2   0.42380    -22.721007082000    -13.102181497900    -12.186028268800
       7    3  1  -0.84760    -11.830814591900     18.486766884000     -8.742544533630
       8    3  2   0.42380    -11.595002560400     17.531390701500     -8.920446292660
       9    3  2   0.42380    -11.882205580800     18.639177115100     -7.755564246240
      10    4  1  -0.84760     21.567286485200    -16.981485977700      6.815667594710
      11    4  2   0.42380     22.417449946800    -17.506276877800      6.858289181650
      12    4  2   0.42380     21.422220901200    -16.657278261600      5.880870647140
      13    5  1  -0.84760     -0.269511944171      9.660441685890    -13.806819435500
      14    5  2   0.42380      0.238024123616     10.228508369700    -14.454667706900
      15    5  2   0.42380     -1.242342536140      9.886652752200    -13.856106277600
      16    6  1  -0.84760     -8.785446156890    -15.666078894100      7.212440691950
      17    6  2   0.42380     -8.961761670720    -16.474519174000      7.773989579700
      18    6  2   0.42380     -7.889616234160    -15.287500218600      7.445178604600
      19    7  1  -0.84760    -19.178321085800     -5.419707054730     22.907204338300
      20    7  2   0.42380    -19.060177031900     -4.813884108010     22.120425754600
      21    7  2   0.42380    -19.175266591200     -6.370967632800     22.598831215800
      22    8  1  -0.84760     22.801430370500     22.362107551600    -16.898084148400
      23    8  2   0.42380     21.854788160500     22.670759256200    -16.990834628600
      24    8  2   0.42380     22.844928219000     21.373115462200    -17.039514641100
      25    9  1  -0.84760    -14.203405144700      1.314624711490     19.360563816200
      26    9  2   0.42380    -13.870606348400      0.381002853145     19.227916966400
      27    9  2   0.42380    -14.692309609900      1.613784454950     18.541127502800
      28   10  1  -0.84760    -10.068252402700    -21.159083273900      0.841167772021
      29   10  2   0.42380     -9.116223581380    -21.459334798600      0.900245223568
      30   10  2   0.42380    -10.242567913100    -20.780543550700     -0.067854659386
      31   11  1  -0.84760     -0.179566296075     11.185421254900     13.406427742500
      32   11  2   0.42380      0.152175418336     12.063443125600     13.751427785200
      33   11  2   0.42380      0.017554637950     11.115564968000     12.428540511500
      34   12  1  -0.84760    -22.326521479800     12.971131458200     17.965292142400
      35   12  2   0.42380    -22.931719673700     13.584669206400     17.458038184600
      36   12  2   0.42380    -22.325979022700     13.227532441500     18.931862492300
      37   13  1  -0.84760    -19.125111294200     16.688601242500     10.973863408200
      38   13  2   0.42380    -19.721442929600     16.044012031700     10.495435430400
      39   13  2   0.42380    -18.250426201400     16.247458642500     11.174659809500
      40   14  1  -0.84760      9.719791472080      3.386857599020     17.943560841800
      41   14  2   0.42380      8.790591315780      3.613900735230     18.235174428300
      42   14  2   0.42380     10.060578535500      2.618211983200     18.484900009700
      43   15  1  -0.84760    -12.817544520700    -21.020301638500     -3.297758012850
      44   15  2   0.42380    -13.590516236900    -21.543420123500     -2.938784787230
      45   15  2   0.42380    -13.133057001000    -20.117532168300     -3.590091997400
      46   16  1  -0.84760    -22.641996056100     10.472096309500     -4.307648896830
      47   16  2   0.42380    -22.880953746600     10.286049241300     -5.260689142850
      48   16  2   0.42380    -21.671734654200     10.277815502900     -4.163261292250
      49   17  1  -0.84760      2.864870369770      2.381009241080     17.047192974600
      50   17  2   0.42380      3.071726574440      3.339583460180     16.851371686000
      51   17  2   0.42380      2.630469280330      2.281422035260     18.014218578000
      52   18  1  -0.84760    -13.933003539100      5.153263343020      8.119532877100
      53   18  2   0.42380    -13.763341228800      5.091359730780      9.103088998150
      54   18  2   0.42380    -13.950211452500      4.234211694970      7.725771584000
      55   19  1  -0.84760     12.831215643800     -2.441073508630     17.895599222900
      56   19  2   0.42380     13.015931171700     -1.461567844620     17.815294628100
      57   19  2   0.42380     13.695751629400     -2.943534850200     17.906093497800
      58   20  1  -0.84760     -6.426114763090      3.002228656340     -7.491534685900
      59   20  2   0.42380     -5.832640433890      2.230116585030     -7.718759618340
      60   20  2   0.42380     -7.086842907970      3.143038449160     -8.228834435530
      61   21  1  -0.84760    -10.052745918800     21.136311028700     13.995949240200
      62   21  2   0.42380    -10.528815414200     22.015694479200     13.989423701300
      63   21  2   0.42380    -10.466531809200     20.528242644100     13.318428704400
      64   22  1  -0.84760      9.888364337830     -7.651301638870    -22.302718128000
      65   22  2   0.42380     10.868016699600     -7.664938219360    -22.502956220400
      66   22  2   0.42380      9.612966417190     -8.535441511130    -21.925289099400
      67   23  1  -0.84760     22.253393628600     10.918420966300    -22.032748331900
      68   23  2   0.42380     21.774408033600     10.131004440700    -22.420753505800
      69   23  2   0.42380     23.008790112500     10.600008908700    -21.460044295100
      70   24  1  -0.84760    -15.723993534800    -18.896270859900    -24.064515096300
      71   24  2   0.42380    -16.399336101200    -18.910197479700    -23.327142417500
      72   24  2   0.42380    -16.027965187800    -18.270817175400    -24.783131073464
      73   25  1  -0.84760     17.164968756900    -11.503811996400     10.421321001000
      74   25  2   0.42380     16.787131938600    -11.288834543000      9.520752273340
      75   25  2   0.42380     16.596416277800    -12.196855685200     10.864534858900
      76   26  1  -0.84760     -7.538491035670     -7.120050315940    -17.054379484600
      77   26  2   0.42380     -7.866308332750     -7.459263582650    -16.172636790100
      78   26  2   0.42380     -6.566241099250     -7.332372126780    -17.152611403000
      79   27  1  -0.84760     13.124359723900     11.661909029700      4.537027667820
      80   27  2   0.42380     13.226233767100     12.517769075800      5.044102870190
      81   27  2   0.42380     13.554043133900     10.918036478000      5.048912219240
      82   28  1  -0.84760     10.501526431900     -0.469895437269     -1.362324895970
      83   28  2   0.42380      9.619313853540     -0.766699344845     -1.727849733740
      84   28  2   0.42380     10.351818418700      0.173103836136     -0.611232727731
      85   29  1  -0.84760     -8.450892305190     10.445391408600     -2.807560252280
      86   29  2   0.42380     -8.218173796800     11.391559287200     -3.032523452460
      87   29  2   0.42380     -8.511176267140     10.344045327700     -1.814537183150
      88   30  1  -0.84760     -0.538369126239     16.635479661600     -4.391931368240
      89   30  2   0.42380     -0.180755947693     16.672827182300     -3.458808666110
      90   30  2   0.42380     -0.534117339285     15.688384478800     -4.712856027900
      91   31  1  -0.84760     -1.518644865560    -21.889817316700    -17.945824174000
      92   31  2   0.42380     -0.911782885507    -21.824089522300    -18.737909014300
      93   31  2   0.42380     -1.356213543200    -22.755551393700    -17.472410429700
      94   32  1  -0.84760     15.382069678000      2.544246754500      9.218105305030
      95   32  2   0.42380     14.863829196500      3.300943386830      8.819561693920
      96   32  2   0.42380     16.360593789500      2.740149617320      9.153975503710
      97   33  1  -0.84760      4.434769024280    -23.101581856800      7.318521120900
      98   33  2   0.42380      5.398704942850    -23.285750868900      7.510639105220
      99   33  2   0.42380      3.879336987570    -23.871746542200      7.632115779670
     100   34  1  -0.84760    -17.763851109700     -9.532530022430    -13.753141913400
     101   34  2   0.42380    -18.609490369500    -10.058864880400    -13.664452232000
     102   34  2   0.42380    -17.332786510400     -9.739809355700    -14.631332433300
     103   35  1  -0.84760     -7.929125523630    -13.125522398600    -12.901214033600
     104   35  2   0.42380     -7.356021491650    -13.927775932100    -12.734058308000
     105   35  2   0.42380     -7.667989473930    -12.704492656100    -13.769857757700
     106   36  1  -0.84760    -15.181433442800     13.795066710800     13.290590208600
     107   36  2   0.42380    -15.151632585300     12.986993011700     13.878917333300
     108   36  2   0.42380    -15.720047036800     13.592283543300     12.472803938600
     109   37  1  -0.84760     10.167336447800    -18.054733579000    -16.271360805100
     110   37  2   0.42380     10.003086278000    -17.103984496800    -16.534225911800
     111   37  2   0.42380      9.630508737560    -18.660437035200    -16.858676165600
     112   38  1  -0.84760      1.138602582630     10.999725187600     22.498007384800
     113   38  2   0.42380      0.261215427449     10.761881909700     22.914687544000
     114   38  2   0.42380      1.078845001420     11.912102385800     22.093042102700
     115   39  1  -0.84760     10.982783060900      6.541234830940     -2.440163424580
     116   39  2   0.42380     11.781654478900      7.112543938170     -2.251987013730
     117   39  2   0.42380     10.414182926200      6.482635800890     -1.619639177270
     118   40  1  -0.84760    -22.425970574300    -22.890022918700    -15.583126436900
     119   40  2   0.42380    -22.856460040300    -23.014577808700    -14.689166203400
     120   40  2   0.42380    -23.107120919800    -23.024777427900    -16.302762059400
     121   41  1  -0.84760      8.290449058930     19.577852567400    -23.986391390100
     122   41  2   0.42380      7.938838617390     18.895580610400    -24.627386767664
     123   41  2   0.42380      7.649572611330     20.343400215900    -23.929697680200
     124   42  1  -0.84760     10.671150831300     19.320105663000     22.659923949900
     125   42  2   0.42380     10.076769892600     20.116232169700     22.773475193600
     126   42  2   0.42380     11.588715912400     19.539158577700     22.991722296100
     127   43  1  -0.84760    -15.544324008600    -15.985105007600     19.191522863600
     128   43  2   0.42380    -15.095572082900    -16.631705697500     18.574652328500
     129   43  2   0.42380    -15.626998339300    -16.394027007800     20.100339540800
     130   44  1  -0.84760     20.708321630500    -19.587438404700    -17.333729583800
     131   44  2   0.42380     20.066349418800    -19.965055760300    -16.666438933300
     132   44  2   0.42380     21.461239851800    -19.136958905900    -16.853956332000
     133   45  1  -0.84760    -13.486725188100      1.070008858610    -12.128048759400
     134   45  2   0.42380    -13.187458665300      0.988493812461    -11.177367506000
     135   45  2   0.42380    -12.869910575200      0.548437858939    -12.717542971100
     136   46  1  -0.84760     -9.081390030700      1.905983871190    -14.234275102900
     137   46  2   0.42380     -8.835165842030      1.352784292330    -13.438446054100
     138   46  2   0.42380    -10.076506799200      1.926775349010    -14.330765161800
     139   47  1  -0.84760      4.950737056630      9.604757466190     14.913617341400
     140   47  2   0.42380      4.863480559670      9.375365062150     15.883032334400
     141   47  2   0.42380      4.297969946850     10.325939063600     14.681685877400
     142   48  1  -0.84760     -2.549374116020     16.433730685200      4.672029322110
     143   48  2   0.42380     -1.643793822020     16.075463500700      4.444941331200
     144   48  2   0.42380     -2.855420018980     17.050287234700      3.946637065050
     145   49  1  -0.84760     10.708012180400    -16.388034484600     12.764155315700
     146   49  2   0.42380      9.919020474380    -17.001925754000     12.789247091700
     147   49  2   0.42380     11.257687852800    -16.584727475100     11.952263375400
     148   50  1  -0.84760     14.290790651400    -14.956929633600    -21.907797774800
     149   50  2   0.42380     14.595865429600    -14.505097348100    -22.746115712900
     150   50  2   0.42380     13.293892470800    -15.035281514200    -21.915213998100
     151   51  1  -0.84760     -5.492762307400      1.685182388540    -23.302110137600
     152   51  2   0.42380     -5.007064435170      0.987413627899    -23.828623512200
     153   51  2   0.42380     -6.318138423890      1.960341099840    -23.795102987400
     154   52  1  -0.84760    -14.955746271000      5.726494947580     -7.743539704220
     155   52  2   0.42380    -15.697100988500      6.187928082400     -7.256228053540
     156   52  2   0.42380    -14.195496079100      5.561914624560     -7.115102783740
     157   53  1  -0.84760     12.666913263000     17.871466473700     20.528690680200
     158   53  2   0.42380     12.945192694700     16.939566971200     20.761336065100
     159   53  2   0.42380     12.168337215000     17.863858189100     19.661878106200
     160   54  1  -0.84760     11.297849465400     -3.480353140120     -3.131453886880
     161   54  2   0.42380     10.892803141100     -4.068685192800     -2.431594707500
     162   54  2   0.42380     11.478559798700     -2.576607798200     -2.743397019410
     163   55  1  -0.84760    -12.035802737500     -8.566570446120      4.405550414060
     164   55  2   0.42380    -11.583635365700     -9.066852315970      3.667131346970
     165   55  2   0.42380    -13.014517520000     -8.498922566850      4.211795055830
     166   56  1  -0.84760     -7.453654303290     -3.891690646560     -0.043515957289
     167   56  2   0.42380     -7.463868715860     -2.900222299110      0.086430884816
     168   56  2   0.42380     -8.062154329350     -4.135149567190     -0.798800984450
     169   57  1  -0.84760     23.328043384100     -6.333105279650     -7.515033130300
     170   57  2   0.42380     24.035247463500     -7.026280438170     -7.654211396190
     171   57  2   0.42380     23.212740280800     -6.166511599380     -6.535772317210
     172   58  1  -0.84760     -9.752315481990     -7.456352601960     22.569273038600
     173   58  2   0.42380    -10.408171311000     -7.995853776480     22.041265828200
     174   58  2   0.42380    -10.238133097600     -6.933319004190     23.269570903800
     175   59  1  -0.84760      6.013204732770     12.421490555300     11.704572399000
     176   59  2   0.42380      6.323322484800     11.570509930800     11.280710444400
     177   59  2   0.42380      5.333527740510     12.858802145400     11.115677026800
     178   60  1  -0.84760    -10.232290618700      7.463177690000     20.923910121200
     179   60  2   0.42380    -11.209897037500      7.266949135970     20.847883518400
     180   60  2   0.42380     -9.745117448190      6.631486759140     21.190279221300
     181   61  1  -0.84760    -14.963027047800     -3.697811062290     -4.003542001960
     182   61  2   0.42380    -15.770353147900     -3.116450008430     -3.902329882070
     183   61  2   0.42380    -14.520176358500     -3.503770958200     -4.878888621860
     184   62  1  -0.84760     -2.541371697220     20.800895639600     16.211304836000
     185   62  2   0.42380     -3.496545014240     20.676262961300     16.479839060900
     186   62  2   0.42380     -2.273299208870     21.751953766400     16.365010986100
     187   63  1  -0.84760    -12.609394084500     23.873833087600     -3.703635914810
     188   63  2   0.42380    -11.921368811500     24.323192578864     -4.273458055000
     189   63  2   0.42380    -12.447233949800     24.101366755900     -2.743462742660
     190   64  1  -0.84760    -16.830507088900     22.297771214900      5.112239542180
     191   64  2   0.42380    -17.573284103100     22.704082530700      5.644398749420
     192   64  2   0.42380    -16.631119380100     21.382722152500      5.462852940380
     193   65  1  -0.84760    -10.525133042100     18.914818832700    -20.390067895900
     194   65  2   0.42380    -11.168218178500     18.880873332100    -21.155109862300
     195   65  2   0.42380    -10.079214916100     18.025383789500    -20.289756736700
     196   66  1  -0.84760    -14.451179014000     11.304847647600    -18.507246768100
     197   66  2   0.42380    -14.684150806700     10.531534799000    -19.096917338800
     198   66  2   0.42380    -14.476731236700     12.150311966800    -19.040667023500
     199   67  1  -0.84760    -10.527382801400     -4.280514067660    -13.482919556000
     200   67  2   0.42380    -10.903776719300     -4.878502285400    -14.190547784700
     201   67  2   0.42380     -9.789784953350     -4.755418184900    -13.002903416800
     202   68  1  -0.84760      0.868206431313    -23.029674381600     18.286338348600
     203   68  2   0.42380     -0.088761331654    -23.095312279200     18.003664743500
     204   68  2   0.42380      1.449978915930    -23.459271476200     17.595695812700
     205   69  1  -0.84760    -22.514015788000    -21.388599597800     10.686400391600
     206   69  2   0.42380    -22.848405854800    -22.276733828800     10.371121355000
     207   69  2   0.42380    -22.586697186000    -21.339561616100     11.682549321600
     208   70  1  -0.84760    -14.369129785700     -2.941848071320     12.546121347300
     209   70  2   0.42380    -14.459985371200     -2.285921337210     11.796784719300
     210   70  2   0.42380    -14.103059634900     -2.459621669080     13.380785574200
     211   71  1  -0.84760     -3.280701656240    -19.184532099200      5.572555201660
     212   71  2   0.42380     -4.195901969360    -18.932485610900      5.258101779650
     213   71  2   0.42380     -3.152642030230    -18.868949534500      6.512772398390
     214   72  1  -0.84760     16.896774615400    -15.628583746900      4.934052259150
     215   72  2   0.42380     16.269359837100    -16.245762487500      5.408858638760
     216   72  2   0.42380     16.819462038100    -14.710620389900      5.323110147580
     217   73  1  -0.84760     14.842546139400      3.405980269810    -24.023224720900
     218   73  2   0.42380     13.995349896200      3.870629065080    -24.280829112664
     219   73  2   0.42380     15.085479514500      2.740362452460    -24.728870734564
     220   74  1  -0.84760     -3.218356220850     -6.845377152980      8.960778416840
     221   74  2   0.42380     -3.104245723020     -7.621382587060      8.340460465650
     222   74  2   0.42380     -3.281748672770     -6.000524043340      8.429549068840
     223   75  1  -0.84760     20.988975188200      8.462296978380    -19.419857380300
     224   75  2   0.42380     20.530053125500      9.207914981760    -18.936696606400
     225   75  2   0.42380     20.621647579200      7.586419006600    -19.106954510000
     226   76  1  -0.84760     -1.503304453640     -9.740005192440    -17.060445815800
     227   76  2   0.42380     -1.537054738830    -10.041131189800    -16.107458905200
     228   76  2   0.42380     -1.947118887690    -10.422221585800    -17.641487587800
     229   77  1  -0.84760     14.728500598900    -12.420843910400      4.197635899690
     230   77  2   0.42380     13.948725221600    -11.884249226300      4.520151800180
     231   77  2   0.42380     15.143555569500    -11.965457576300      3.410011206000
     232   78  1  -0.84760     -1.519843358070      8.703476194840    -16.253940410100
     233   78  2   0.42380     -2.498233990500      8.577459544880    -16.090014895600
     234   78  2   0.42380     -1.008150033470      7.981452087900    -15.788267638100
     235   79  1  -0.84760     14.132416223200      2.254001827620    -21.232784337900
     236   79  2   0.42380     14.025418470500      1.741254640940    -20.380938223000
     237   79  2   0.42380     14.730889189100      3.039652256580    -21.075993035300
     238   80  1  -0.84760     -0.352497492500    -19.070508551900     -7.972627131670
     239   80  2   0.42380      0.257772161607    -19.720380717300     -7.519596097500
     240   80  2   0.42380     -1.037609975490    -18.746262375200     -7.320334787240
     241   81  1  -0.84760    -22.119919711800    -11.948197663800     22.903872288900
     242   81  2   0.42380    -22.015997908600    -11.400579284400     23.734121871500
     243   81  2   0.42380    -22.169110369800    -12.916828278300     23.147460079800
     244   82  1  -0.84760      6.738918077240     -5.217545505810     -6.021476697720
     245   82  2   0.42380      5.747211212910     -5.089751705680     -6.007829724570
     246   82  2   0.42380      7.036184848580     -5.419243475140     -6.954723929610
     247   83  1  -0.84760     18.618859906700      9.302238587060     16.462816631500
     248   83  2   0.42380     17.771597433500      8.799029936890     16.292736191700
     249   83  2   0.42380     19.097939374000      8.895136842170     17.240474032400
     250   84  1  -0.84760     19.722248131300     23.317831771800    -23.901092953400
     251   84  2   0.42380     19.816641061800     22.516756096400    -24.492166330363
     252   84  2   0.42380     20.290218363800     24.061322939800    -24.254123686064
     253   85  1  -0.84760     11.911856475100     -8.431009891890    -11.108943616600
     254   85  2   0.42380     11.634291408500     -9.132316084780    -11.765546432300
     255   85  2   0.42380     11.103058084200     -8.070996144580    -10.643932579500
     256   86  1  -0.84760    -16.025077097900      7.115965620070      3.189953335160
     257   86  2   0.42380    -15.742140353200      7.973959041530      3.618665461470
     258   86  2   0.42380    -16.724703656200      6.676641950900      3.753440151930
     259   87  1  -0.84760      8.429910518610     15.990624116700     -4.539255738060
     260   87  2   0.42380      8.968120005230     16.099099213100     -5.375056971580
     261   87  2   0.42380      7.959373732290     16.848352496400     -4.332139443950
     262   88  1  -0.84760     23.216071016500    -14.395823455600     -1.191995888930
     263   88  2   0.42380     22.490348763100    -13.774450534200     -0.896660649729
     264   88  2   0.42380     23.866471397900    -13.899366433700     -1.766895679560
     265   89  1  -0.84760      8.765791777520     11.588116841700     -3.603465536410
     266   89  2   0.42380      9.039457696540     12.168248224500     -4.370638622080
     267   89  2   0.42380      7.910370074130     11.930738817600     -3.215053524530
     268   90  1  -0.84760      8.538211475770     10.644121627700     13.455407635400
     269   90  2   0.42380      7.891323945230     10.043691389000     13.925535332200
     270   90  2   0.42380      8.821491789590     11.377718539500     14.073135597300
     271   91  1  -0.84760     -5.479395095650     22.935875805100    -13.425253855000
     272   91  2   0.42380     -6.360316881880     23.352926557500    -13.201545391800
     273   91  2   0.42380     -4.766256272950     23.333194741500    -12.847698072200
     274   92  1  -0.84760      1.498814536550      4.196084754970    -10.753984505700
     275   92  2   0.42380      2.330516420460      3.883913961510    -11.213137391000
     276   92  2   0.42380      1.168619973170      5.031195375620    -11.193941096300
     277   93  1  -0.84760     23.376484174500     21.693044436600    -20.192555249500
     278   93  2   0.42380     23.968354441100     22.091773291400    -20.893058559900
     279   93  2   0.42380     22.419956209300     21.870879538300    -20.423702234000
     280   94  1  -0.84760     15.136629225400     18.597031781600     23.097160662300
     281   94  2   0.42380     15.530580326500     19.318581625200     23.666518505100
     282   94  2   0.42380     14.269368066600     18.295814419100     23.493552114000
     283   95  1  -0.84760    -21.218139846300     21.659832912100     -3.046901543650
     284   95  2   0.42380    -22.155140179800     21.320471588400     -2.964050671280
     285   95  2   0.42380    -20.767023203900     21.614043730800     -2.155611957850
     286   96  1  -0.84760    -11.890289206000    -10.916643885600    -17.275921151800
     287   96  2   0.42380    -12.827916958000    -10.877210421500    -16.930523988300
     288   96  2   0.42380    -11.584463980000     -9.995301536640    -17.515919500200
     289   97  1  -0.84760      0.363484000864    -22.821848437300      2.946800664610
     290   97  2   0.42380      0.213991268580    -22.789582762300      3.935036896100
     291   97  2   0.42380     -0.236987691099    -22.160637406400      2.497096628800
     292   98  1  -0.84760     -6.456695552910    -10.534537882700      7.761971051670
     293   98  2   0.42380     -6.639727728000    -10.556239627000      8.744838416660
     294   98  2   0.42380     -5.772884748940     -9.831769935030      7.565705934610
     295   99  1  -0.84760    -21.069541440600      1.320164942960     -4.572976783540
     296   99  2   0.42380    -20.440982143000      1.881719377060     -4.034859856750
     297   99  2   0.42380    -21.346950633800      1.822124564730     -5.392171923690
     298  100  1  -0.84760    -19.456853065700     -7.204088110670      8.493793803390
     299  100  2   0.42380    -19.449228595100     -6.966877405750      9.465222106930
     300  100  2   0.42380    -19.606523166200     -6.378204176390      7.950181268510
     301  101  1  -0.84760     -4.071409492690    -13.582464422900     -0.033974382480
     302  101  2   0.42380     -4.972677664810    -13.156918540300     -0.115376984687
     303  101  2   0.42380     -3.618439458280    -13.576911273400     -0.925482829135
     304  102  1  -0.84760    -21.374396770200    -19.959712227900     -1.143554388170
     305  102  2   0.42380    -20.992027035900    -20.880270028600     -1.063762647030
     306  102  2   0.42380    -22.135328962400    -19.969933374500     -1.792305285750
     307  103  1  -0.84760    -20.678194559300    -17.762130400800     12.643059719900
     308  103  2   0.42380    -20.916849079000    -18.240547702100     13.488140133800
     309  103  2   0.42380    -20.348021571000    -16.843886288900     12.861722814300
     310  104  1  -0.84760     -1.551774432550     20.327887988300      7.147798608260
     311  104  2   0.42380     -1.472722237120     21.309226482300      6.972511670520
     312  104  2   0.42380     -0.717577787723     19.866959069100      6.845043774770
     313  105  1  -0.84760    -16.783424660700     17.069333363400    -14.045539850300
     314  105  2   0.42380    -17.140551774800     16.910751421000    -13.125044336000
     315  105  2   0.42380    -16.562445991100     18.038455700300    -14.154948824900
     316  106  1  -0.84760     20.945932253100    -21.794170167700     -9.582216302560
     317  106  2   0.42380     21.410948897700    -21.803390530700    -10.467470223800
     318  106  2   0.42380     21.383181605800    -22.452180534100     -8.969162176710
     319  107  1  -0.84760    -15.087978096600    -16.687319488600     21.872233803200
     320  107  2   0.42380    -14.675850005400    -17.225198624100     22.607649652900
     321  107  2   0.42380    -14.647091491100    -15.790867666100     21.827589305200
     322  108  1  -0.84760     18.949407128400     11.584289487200    -18.734227351700
     323  108  2   0.42380     19.306162739800     11.577528721100    -17.800054067100
     324  108  2   0.42380     19.654776663100     11.921042291700    -19.357967175800
     325  109  1  -0.84760     18.217496528600    -10.934609678900     13.339880717000
     326  109  2   0.42380     17.863889212600    -10.128344858200     12.865645643500
     327  109  2   0.42380     18.680348858400    -10.651028583200     14.179731586400
     328  110  1  -0.84760     17.223217602300     18.049534271400     11.452916381800
     329  110  2   0.42380     17.864161117400     18.391777516800     12.139983315600
     330  110  2   0.42380     16.302738319200     18.017573460700     11.842398596900
     331  111  1  -0.84760     -7.839642895760    -23.099214065900    -23.458473075300
     332  111  2   0.42380     -8.734367659650    -23.309567894200    -23.852451328300
     333  111  2   0.42380     -7.694839790540    -22.109815732500    -23.469563544500
     334  112  1  -0.84760     -4.493275349960     13.930898748000     -9.126349377240
     335  112  2   0.42380     -4.397541439440     13.394986206300     -8.287521167120
     336  112  2   0.42380     -4.667331004830     13.316821605000     -9.896163570100
     337  113  1  -0.84760     13.316728821500     23.251302566500    -21.495360459500
     338  113  2   0.42380     12.846378905800     24.133782520464    -21.495064546700
     339  113  2   0.42380     13.913810277600     23.191570046500    -20.695406860300
     340  114  1  -0.84760    -17.318961876100     12.389036000600     -0.578871778835