LAMMPS Atom File

         4500 atoms
         3000 bonds
         1500 angles
           0 dihedrals
           0 impropers

           2 atom types
           1 bond types
           1 angle types

         0.0  66.8800828292 xlo xhi
         0.0  66.8800828292 ylo yhi
         0.0  66.8800828292 zlo zhi

Masses

         1   15.9994
         2   1.00794

Atoms

       1    1  1  -0.84760    -22.126908804100      9.034298166820    -23.902552874600
       2    1  2   0.42380    -21.716783726900      8.579598151910    -24.693150950400
       3    1  2   0.42380    -21.903325230500      8.524542906610    -23.071794209100
       4    2  1  -0.84760    -30.638407549700    -21.459927768100    -15.523682181000
       5    2  2   0.42380    -30.319041450800    -22.325988510700    -15.139047178700
       6    2  2   0.42380    -31.638125395200    -21.453926807400    -15.546665172100
       7    3  1  -0.84760    -12.741559973200     25.571369669300    -10.990983910900
       8    3  2   0.42380    -12.954383374300     26.497185272600    -10.678619270200
       9    3  2   0.42380    -13.332581581200     24.916550689200    -10.519915378700
      10    4  1  -0.84760     28.442533397800    -20.331221097400     11.359075573800
      11    4  2   0.42380     27.655599734400    -20.644444232500     10.827449128800
      12    4  2   0.42380     28.307839643000    -20.563591799800     12.322331224800
      13    5  1  -0.84760      1.095965503140     16.485770278600    -15.849562908200
      14    5  2   0.42380      0.819764165472     15.599901247100    -15.476804433800
      15    5  2   0.42380      1.885600553400     16.829652028100    -15.341407587700
      16    6  1  -0.84760    -10.035037769200    -23.306151947100     11.222580168500
      17    6  2   0.42380    -10.947989486300    -23.506507169500     10.867084813800
      18    6  2   0.42380    -10.097550095900    -22.588681860400     11.916358867800
      19    7  1  -0.84760    -24.505529428500     -7.955507106010     32.233861251700
      20    7  2   0.42380    -25.218097642800     -7.834972172330     32.925032626700
      21    7  2   0.42380    -23.664593209400     -8.270891529290     32.673587235700
      22    8  1  -0.84760     32.858809137200     32.155587302300    -24.771185121800
      23    8  2   0.42380     32.308254981100     32.814064718400    -25.284310461000
      24    8  2   0.42380     32.266973881800     31.433131774600    -24.413709191400
      25    9  1  -0.84760    -20.593131230900      2.324975230800     24.761811649700
      26    9  2   0.42380    -21.109972443300      3.148850982240     24.529209183500
      27    9  2   0.42380    -20.064215466900      2.027780117280     23.966875690600
      28   10  1  -0.84760    -13.207613782700    -31.016715573800      3.424817791690
      29   10  2   0.42380    -13.081884361900    -30.336138591900      2.703009586930
      30   10  2   0.42380    -13.542096176200    -30.566571166900      4.252761957300
      31   11  1  -0.84760     -0.415575939290     16.284279011200     17.807831923300
      32   11  2   0.42380     -0.083834224880     17.162300881900     18.152831966000
      33   11  2   0.42380     -0.218455005265     16.214422724300     16.829944692300
      34   12  1  -0.84760    -19.365853399800     14.867661425600     24.967490923400
      35   12  2   0.42380    -19.768803941000     15.650730756700     25.441234824700
      36   12  2   0.42380    -18.938426385700     15.176079847700     24.117676694000
      37   13  1  -0.84760    -25.640419531400     25.126005640300     14.338392589500
      38   13  2   0.42380    -24.824487223000     24.606377313400     14.084934762300
      39   13  2   0.42380    -25.902821389200     25.724593649300     13.581532192600
      40   14  1  -0.84760     12.913928062900      3.852578145360     28.024766897300
      41   14  2   0.42380     12.398975877000      3.214621159370     27.452198010400
      42   14  2   0.42380     12.277942025800      4.402565112710     28.566094983000
      43   15  1  -0.84760    -17.012791023600    -29.378818838900     -4.707431161240
      44   15  2   0.42380    -16.336844692100    -28.755681302100     -4.313989720570
      45   15  2   0.42380    -16.796377123600    -30.317636312300     -4.439500618960
      46   16  1  -0.84760    -31.255836912900     13.667747905200     -5.356045663910
      47   16  2   0.42380    -31.494794603500     13.481700837000     -6.309085909940
      48   16  2   0.42380    -30.285575511100     13.473467098700     -5.211658059330
      49   17  1  -0.84760      2.953466169990      3.590974023320     25.104029605200
      50   17  2   0.42380      3.490987963210      4.367221548930     24.774620891300
      51   17  2   0.42380      3.557598391780      2.935654045330     25.557438896100
      52   18  1  -0.84760    -18.762867063900      8.520286038850      8.313244947740
      53   18  2   0.42380    -19.410910436500      7.909206658140      7.858688265190
      54   18  2   0.42380    -19.166139936300      8.861933913820      9.162154671990
      55   19  1  -0.84760     18.451535138100     -2.055392003810     24.243441231000
      56   19  2   0.42380     17.703375931700     -2.185064403230     24.894166111900
      57   19  2   0.42380     18.075773103600     -1.839614208760     23.342196072000
      58   20  1  -0.84760     -5.016509846840      0.093002167450     -7.838676579640
      59   20  2   0.42380     -5.647459773370     -0.268916352216     -8.524910632520
      60   20  2   0.42380     -5.486579731970      0.165571918392     -6.959035781160
      61   21  1  -0.84760    -12.094106551700     29.794344508600     18.335777037400
      62   21  2   0.42380    -12.436704327600     29.085635701800     18.952509225000
      63   21  2   0.42380    -11.122652237900     29.639012703600     18.156476879600
      64   22  1  -0.84760     12.268173605400     -9.494423418620     29.540680251800
      65   22  2   0.42380     12.201994187800    -10.441809458900     29.227503025200
      66   22  2   0.42380     12.760203728800     -9.464587765590     30.410747026000
      67   23  1  -0.84760    -27.112168818100     17.754265230800    -23.576005358200
      68   23  2   0.42380    -27.622614322600     18.614160779000    -23.581008650500
      69   23  2   0.42380    -26.779338869000     17.569597439800    -22.651277272700
      70   24  1  -0.84760    -22.946121040600    -24.562855795900    -33.418935643400
      71   24  2   0.42380    -23.712643346000    -24.056689243200    -33.814206406693
      72   24  2   0.42380    -22.994408927800    -25.519301580000    -33.706824062593
      73   25  1  -0.84760     25.279012272200    -15.178968768300     11.603484453000
      74   25  2   0.42380     26.153389462700    -15.664161221100     11.610751674400
      75   25  2   0.42380     25.424736305200    -14.225435002000     11.867184780500
      76   26  1  -0.84760     -9.399760292590     -9.640727173440    -21.088789682500
      77   26  2   0.42380     -8.797082726990    -10.402168206600    -21.327509821900
      78   26  2   0.42380     -9.119135440090     -9.256643906240    -20.209170596800
      79   27  1  -0.84760     16.941230648500     15.923095928500      3.944111971230
      80   27  2   0.42380     16.879537300000     15.618344920100      4.894543848650
      81   27  2   0.42380     16.473204171600     16.801188651700      3.844591187610
      82   28  1  -0.84760     12.437438952200     -0.551743832560      1.143006781400
      83   28  2   0.42380     11.845078245700     -0.738171022729      1.926813961910
      84   28  2   0.42380     13.109820734200     -1.286234394960      1.051211613310
      85   29  1  -0.84760    -11.519543851100     13.937187052300     -4.663298945550
      86   29  2   0.42380    -11.241913895700     14.631548682400     -5.327214252340
      87   29  2   0.42380    -12.395716779400     13.542690449300     -4.940234732300
      88   30  1  -0.84760     -1.094976005080     24.447775462800     -4.313197143390
      89   30  2   0.42380     -1.567719739990     23.989103547800     -3.560778752100
      90   30  2   0.42380     -1.030336542930     25.426585000600     -4.118894213070
      91   31  1  -0.84760     -3.703509753110    -29.179967492600    -24.727441893700
      92   31  2   0.42380     -4.408155268860    -29.495543310000    -24.091921161800
      93   31  2   0.42380     -3.196280373060    -29.966361364000    -25.080008249100
      94   32  1  -0.84760     25.094456180200      1.544221180550     12.930026850200
      95   32  2   0.42380     26.068107570500      1.675095877550     12.743278935400
      96   32  2   0.42380     24.556373723100      1.934367501270     12.182863469200
      97   33  1  -0.84760      5.900982784280    -32.576285171500     10.522908227400
      98   33  2   0.42380      5.043352099460    -33.054004676700     10.713312226400
      99   33  2   0.42380      5.704943778800    -31.709025441700     10.065273799700
     100   34  1  -0.84760    -23.382438409200    -19.100260147700    -17.497692526900
     101   34  2   0.42380    -23.112682375700    -20.018479269600    -17.207683343400
     102   34  2   0.42380    -24.284695249700    -18.884426376200    -17.124398571800
     103   35  1  -0.84760    -11.632675624000    -15.318679244800    -17.856420696100
     104   35  2   0.42380    -11.298954253400    -16.151742858100    -18.297595336100
     105   35  2   0.42380    -12.534668369500    -15.489824149700    -17.460038924900
     106   36  1  -0.84760    -21.703561980000     18.350159663600     15.222957501300
     107   36  2   0.42380    -21.459082303500     17.535437951500     14.697164557600
     108   36  2   0.42380    -21.323822697900     18.278018899000     16.145233917400
     109   37  1  -0.84760     16.851714505500    -25.657530973700    -21.842862989300
     110   37  2   0.42380     17.633119246800    -25.735559031400    -21.223735981000
     111   37  2   0.42380     17.178943400500    -25.495246325300    -22.773768431900
     112   38  1  -0.84760     -0.124897958267     13.152498180100     31.449980868700
     113   38  2   0.42380     -0.341416013400     13.902258759100     30.824697728000
     114   38  2   0.42380      0.606983389902     13.436053750700     32.069614575500
     115   39  1  -0.84760     13.869148955100      8.866810040190     -6.476364837060
     116   39  2   0.42380     13.023752084300      9.144799453210     -6.932463529470
     117   39  2   0.42380     14.137520986400      9.567887534050     -5.815708496460
     118   40  1  -0.84760    -31.036423383800    -30.118154366900    -24.203275257600
     119   40  2   0.42380    -31.781510706400    -29.798485613200    -24.788644175100
     120   40  2   0.42380    -30.219543397500    -29.566729673400    -24.372502606000
     121   41  1  -0.84760      9.381929370740     23.784226408200    -28.949719245400
     122   41  2   0.42380     10.162886907900     24.054754263800    -28.386762760000
     123   41  2   0.42380      9.208550829130     24.487458871000    -29.639214701900
     124   42  1  -0.84760     12.972519027500     25.433134190300     32.744618601300
     125   42  2   0.42380     12.734524078700     26.365367107200     32.472037983600
     126   42  2   0.42380     12.242443090800     24.808297504500     32.467908928900
     127   43  1  -0.84760    -21.263704804600    -20.118337144900     24.365593818000
     128   43  2   0.42380    -21.188490639000    -20.653922055300     25.206719036400
     129   43  2   0.42380    -21.697809307700    -20.672455126300     23.655307577700
     130   44  1  -0.84760     27.742181191600    -27.105898665700    -22.712688435600
     131   44  2   0.42380     28.227453300900    -26.334465184200    -23.124272404600
     132   44  2   0.42380     27.865175408300    -27.918947416200    -23.281743926900
     133   45  1  -0.84760    -20.853713415700      3.571885843850    -14.798236850500
     134   45  2   0.42380    -21.087606412100      3.650038140320    -13.829120611500
     135   45  2   0.42380    -20.965572113000      4.461562080240    -15.240914867000
     136   46  1  -0.84760    -10.560142473900      0.866151151960    -22.277234708700
     137   46  2   0.42380    -10.912761809200      0.297292056617    -23.020241393800
     138   46  2   0.42380    -11.212865347900      1.597244200010    -22.078599855700
     139   47  1  -0.84760      9.794063178880     16.427379374000     24.010156642000
     140   47  2   0.42380      9.510856990540     15.937392509500     23.185713116000
     141   47  2   0.42380     10.521340118600     17.074078327400     23.780268154800
     142   48  1  -0.84760     -2.289971639590     20.018493753600      6.846004626730
     143   48  2   0.42380     -3.191779123320     20.217625918100      6.462481950280
     144   48  2   0.42380     -2.197760180870     20.470778285300      7.733098617950
     145   49  1  -0.84760     14.894416743700    -21.799241987800     18.765273425500
     146   49  2   0.42380     14.902009076000    -21.198779003100     19.564889933900
     147   49  2   0.42380     14.564182959500    -22.704794508700     19.031582042600
     148   50  1  -0.84760     20.435008110600    -19.557188413000    -30.015575535600
     149   50  2   0.42380     20.289492516400    -20.258556445300    -29.317787534100
     150   50  2   0.42380     21.318943541000    -19.706288071300    -30.458776897000
     151   51  1  -0.84760     -7.373130384220      2.624716033660    -32.456957801600
     152   51  2   0.42380     -8.112133785480      2.916009581920    -33.064429646000
     153   51  2   0.42380     -7.538606051030      2.979579450320    -31.536800337300
     154   52  1  -0.84760    -23.023766542800      8.834779485690    -10.504609332400
     155   52  2   0.42380    -22.884739674200      8.468757153780     -9.584446747670
     156   52  2   0.42380    -23.694654135400      8.273175927270    -10.988872980900
     157   53  1  -0.84760     18.223305007100     29.832464052300     24.914441846300
     158   53  2   0.42380     17.583674919100     29.768664047200     24.148411226800
     159   53  2   0.42380     17.756726689200     30.226426885200     25.706337015800
     160   54  1  -0.84760     16.051162930000     -4.778958677480     -2.441911577190
     161   54  2   0.42380     15.371515454000     -5.502238739250     -2.319660766730
     162   54  2   0.42380     16.435268923000     -4.528836082100     -1.553147675240
     163   55  1  -0.84760    -16.971390332600    -11.367634408800      8.195791231360
     164   55  2   0.42380    -16.740265491100    -10.395474806500      8.234353069110
     165   55  2   0.42380    -16.168423214700    -11.890009222200      7.908792343000
     166   56  1  -0.84760     -9.856214121070     -7.664236360220      1.762461763930
     167   56  2   0.42380    -10.232075386800     -7.414469637690      2.654843348930
     168   56  2   0.42380     -9.542129383140     -6.840375507730      1.290652402930
     169   57  1  -0.84760     30.781903452400     -8.118684866330    -12.041359273200
     170   57  2   0.42380     30.958267834600     -8.851962610760    -11.384701558500
     171   57  2   0.42380     31.544690484000     -8.057121757110    -12.685071886100
     172   58  1  -0.84760    -14.249599517700     -9.819055222030     31.118852451900
     173   58  2   0.42380    -13.913726281100     -9.487563557180     30.237204877700
     174   58  2   0.42380    -13.842464966200     -9.278652119550     31.855198799600
     175   59  1  -0.84760      3.131305332790     18.132220932300     19.635738299100
     176   59  2   0.42380      2.393654664200     18.152329314400     18.960855239600
     177   59  2   0.42380      2.857954156260     18.653846407600     20.443937530600
     178   60  1  -0.84760    -13.647946120100     10.092495196400     29.595447032600
     179   60  2   0.42380    -14.303801949100      9.552994021910     29.067439822100
     180   60  2   0.42380    -14.133763735700     10.615528794200     30.295744897700
     181   61  1  -0.84760    -24.234490810200     -2.405236451760     -2.277256735450
     182   61  2   0.42380    -23.878684193600     -1.585893750610     -1.827724545660
     183   61  2   0.42380    -24.384692070100     -3.120996392150     -1.595254323980
     184   62  1  -0.84760     -2.110705263630     27.825343527800     23.396813064900
     185   62  2   0.42380     -2.947681103160     27.688369989200     22.866992629500
     186   62  2   0.42380     -1.322518635400     27.529054957400     22.857392151200
     187   63  1  -0.84760    -15.431785426600    -31.877237149900     -5.460821515180
     188   63  2   0.42380    -16.026356813100    -32.623668035900     -5.759695734210
     189   63  2   0.42380    -14.490032864700    -32.207094539700     -5.395275999340
     190   64  1  -0.84760    -18.990184372200     32.738896929000      8.816376495750
     191   64  2   0.42380    -19.274254673600     33.068508283700      7.916009671200
     192   64  2   0.42380    -19.457298355300     33.265429030700      9.526706329520
     193   65  1  -0.84760    -14.059919021900     26.392468328800    -27.933834269600
     194   65  2   0.42380    -13.223645353100     26.928796616500    -28.047844438900
     195   65  2   0.42380    -14.850359727900     26.949189456100    -28.189304574800
     196   66  1  -0.84760    -18.799880840400     15.065193762000    -23.512144524400
     197   66  2   0.42380    -18.103219040200     15.737236569600    -23.261105083500
     198   66  2   0.42380    -18.771922297400     14.299984893800    -22.868969814100
     199   67  1  -0.84760    -15.551424977800     -7.518720439380    -19.455952113300
     200   67  2   0.42380    -14.747413439700     -7.425448437820    -18.868699373700
     201   67  2   0.42380    -15.815441578200     -8.481772800680    -19.509106455800
     202   68  1  -0.84760      2.868927053930     32.342965310000     29.709178512100
     203   68  2   0.42380      1.993628930020     32.610607212400     30.111945201800
     204   68  2   0.42380      3.479301002010     32.011277023000     30.428502169200
     205   69  1  -0.84760    -30.795814677600    -26.219767513600     16.545290819100
     206   69  2   0.42380    -30.197236954400    -26.053530549900     17.328916993500
     207   69  2   0.42380    -31.697993961400    -26.504359106200     16.869451528100
     208   70  1  -0.84760    -21.933478699300     -5.389633156590     18.958255354400
     209   70  2   0.42380    -22.783588577100     -5.372625291860     19.484585980600
     210   70  2   0.42380    -21.579029808200     -4.458982371450     18.867397774800
     211   71  1  -0.84760     -4.149391906940    -27.286798641700      7.878015750200
     212   71  2   0.42380     -4.133811876110    -27.725075020900      8.776720973340
     213   71  2   0.42380     -3.258946188640    -26.870189669200      7.694867212630
     214   72  1  -0.84760     24.758259235000    -24.785735153700      5.252193444960
     215   72  2   0.42380     25.648271486700    -24.892541630700      4.808943438310
     216   72  2   0.42380     24.052243163600    -24.657644701100      4.555677728780
     217   73  1  -0.84760     19.575868736600      4.302316460300     29.130704357600
     218   73  2   0.42380     18.650076964800      4.129936575240     28.794260052400
     219   73  2   0.42380     20.236454603400      4.098261407400     28.408217092600
     220   74  1  -0.84760     -1.710450095060    -10.049030430700      9.824144610020
     221   74  2   0.42380     -1.676231859260    -10.154872343900     10.817938654000
     222   74  2   0.42380     -2.484660125490     -9.466142177380      9.577486723710
     223   75  1  -0.84760     28.126889994400      9.049125593110    -26.155581884200
     224   75  2   0.42380     29.121228786400      9.034174421460    -26.260780883200
     225   75  2   0.42380     27.834683854700      9.964680661590    -25.879222537600
     226   76  1  -0.84760     -1.841749798350    -16.588674841600    -23.561361807100
     227   76  2   0.42380     -2.690355583570    -16.870916134600    -24.008807975700
     228   76  2   0.42380     -1.815816155480    -15.591230047700    -23.494793576200
     229   77  1  -0.84760     20.362240045000    -17.406575180300      3.611611972590
     230   77  2   0.42380     19.690167535100    -16.767632726800      3.237351257800
     231   77  2   0.42380     19.981734676400    -17.854598844000      4.420617820040
     232   78  1  -0.84760      0.006958352273     11.814625911400    -17.526013190800
     233   78  2   0.42380     -0.102123331135     12.161028942400    -16.594291061500
     234   78  2   0.42380     -0.386422164610     12.468066794100    -18.172748671300
     235   79  1  -0.84760     19.583222221400      6.220676795750    -31.075227712800
     236   79  2   0.42380     20.389974765900      5.898503254280    -31.570560470800
     237   79  2   0.42380     19.551955101200      7.219799365820    -31.103092693900
     238   80  1  -0.84760     -0.838279866441    -30.370290456300    -10.247607731300
     239   80  2   0.42380     -0.050358906263    -29.768477156900    -10.117218647500
     240   80  2   0.42380     -1.280153396160    -30.156839093900    -11.118920705800
     241   81  1  -0.84760    -33.089968979400    -18.382596138800     31.023181582600
     242   81  2   0.42380    -33.938498380393    -18.680775756500     30.586046853700
     243   81  2   0.42380    -32.701342856100    -17.617658896800     30.509527270700
     244   82  1  -0.84760     11.812976028200     -8.018204445500     -9.265978754410
     245   82  2   0.42380     12.349857007600     -7.419855417240     -8.671220606620
     246   82  2   0.42380     12.427663534300     -8.531430977110     -9.864942690800
     247   83  1  -0.84760     25.776100175500     10.875023419900     27.201642110800
     248   83  2   0.42380     25.839997794500      9.889054126310     27.047429120400
     249   83  2   0.42380     25.274867559900     11.047986401200     28.049492140100
     250   84  1  -0.84760     25.910414978500    -32.789315358100     32.785110733700
     251   84  2   0.42380     25.381791280100    -32.800224895300     33.633896906693
     252   84  2   0.42380     26.361933447500    -33.673079771793     32.662263132400
     253   85  1  -0.84760     15.301158549500     -7.977827861070    -14.934582098500
     254   85  2   0.42380     16.193930764700     -7.620175715240    -15.208521351500
     255   85  2   0.42380     15.200445933000     -8.914749182170    -15.269299004200
     256   86  1  -0.84760    -23.232127550000     10.606157759900      3.581335330370
     257   86  2   0.42380    -23.644519143100      9.964494126760      4.228019917880
     258   86  2   0.42380    -22.551145655500     11.164951824100      4.054635291630
     259   87  1  -0.84760     11.957229213200     21.868332271500     -8.171084477000
     260   87  2   0.42380     12.395114617400     22.382764340800     -8.908387683860
     261   87  2   0.42380     10.963754355300     21.921259824700     -8.272111111330
     262   88  1  -0.84760     29.875735141400    -19.969006571600     -1.975256300190
     263   88  2   0.42380     29.167733991600    -19.631499186900     -1.354915154420
     264   88  2   0.42380     29.500578883200    -20.703004598900     -2.541387625850
     265   89  1  -0.84760     13.395540931500     18.489417672300     -9.968961906690
     266   89  2   0.42380     13.313654637500     18.294404918600     -8.991585489560
     267   89  2   0.42380     13.758550979200     19.412587336100    -10.095379773600
     268   90  1  -0.84760     11.208395702500     14.520471272800     21.155237001400
     269   90  2   0.42380     10.310654087000     14.333955675300     21.554325868300
     270   90  2   0.42380     11.853415665600     13.811146706400     21.439504317100
     271   91  1  -0.84760     -5.134128562700     30.190353522700    -18.106232410000
     272   91  2   0.42380     -5.627693729880     30.938274187200    -18.550088361100
     273   91  2   0.42380     -4.298937167300     29.991551772900    -18.619002531300
     274   92  1  -0.84760     -0.037585626691      7.182288989660    -14.975392283900
     275   92  2   0.42380      0.729689651006      7.002107595640    -14.359906042400
     276   92  2   0.42380     -0.896868858895      7.094144744760    -14.471544173000
     277   93  1  -0.84760     31.606819326700     30.249798997700     30.615084524700
     278   93  2   0.42380     30.865128795400     29.987805088900     29.997626552500
     279   93  2   0.42380     31.735390268000     29.535863402800     31.303390764200
     280   94  1  -0.84760     17.449526007100     27.538242850900     31.762436689100
     281   94  2   0.42380     16.711300616900     27.879976193800     31.180851273600
     282   94  2   0.42380     17.829309011000     26.703774701900     31.363152606900
     283   95  1  -0.84760    -29.362853060600     30.665581620300     -4.458257019670
     284   95  2   0.42380    -29.681396034900     30.433110229800     -5.377216989500
     285   95  2   0.42380    -29.240665974600     31.655624234700     -4.388357536960
     286   96  1  -0.84760    -16.211484097600    -13.247811308500    -29.250410267800
     287   96  2   0.42380    -15.754017762100    -14.020502043900    -29.690493872900
     288   96  2   0.42380    -16.905192779100    -13.588558525100    -28.615855621100
     289   97  1  -0.84760     -1.286604704490    -28.825914085200      7.173326585180
     290   97  2   0.42380     -1.342583748100    -29.799583726700      7.394310240320
     291   97  2   0.42380     -0.951646226500    -28.322129803200      7.969570401630
     292   98  1  -0.84760     31.642967836800      7.330459197190    -30.721955984500
     293   98  2   0.42380     31.778917161200      8.064770446630    -31.387015959300
     294   98  2   0.42380     32.529350643200      7.035963973150    -30.364747244900
     295   99  1  -0.84760    -11.514018836400    -13.952658808600      9.719771150590
     296   99  2   0.42380    -12.145408067700    -14.391900320400      9.080697967860
     297   99  2   0.42380    -11.403925499900    -14.529604882000     10.529099690600
     298  100  1  -0.84760    -30.170631179600      1.932718810520     -7.880094476160
     299  100  2   0.42380    -30.518518914900      1.227081451940     -8.497386985290
     300  100  2   0.42380    -30.398262207400      2.835827830700     -8.244207388450
     301  101  1  -0.84760    -26.981256872900     -9.990071425900     11.778535391200
     302  101  2   0.42380    -27.539344967600     -9.217804958970     12.082084699700
     303  101  2   0.42380    -26.323159057200     -9.676948885800     11.093800742000
     304  102  1  -0.84760     -5.645915348500    -18.835109682200     -0.047113042263
     305  102  2   0.42380     -5.923703810910    -19.695187305600     -0.475014960824
     306  102  2   0.42380     -6.170397224860    -18.081267556700     -0.442891782340
     307  103  1  -0.84760    -32.899862427100    -25.793739955900     -6.708121319540
     308  103  2   0.42380    -32.730710480100    -25.578967943300     -5.746216645760
     309  103  2   0.42380    -33.454884965593    -26.623130532800     -6.771849278040
     310  104  1  -0.84760    -28.674918661800    -24.631146739700     17.532415998100
     311  104  2   0.42380    -28.613332716400    -25.046881287000     16.625017542400
     312  104  2   0.42380    -28.890677215500    -23.659106994600     17.439750036700
     313  105  1  -0.84760     -2.427379420040     27.904216074600     10.418798949500
     314  105  2   0.42380     -2.607976706830     27.277132457700      9.661071585900
     315  105  2   0.42380     -2.893067155210     27.576547571300     11.240850216300
     316  106  1  -0.84760    -23.273953421500     23.670429466300    -19.477266819100
     317  106  2   0.42380    -23.197112107500     24.491056427600    -20.043541313400
     318  106  2   0.42380    -23.458218594200     22.879173017800    -20.060327346700
     319  107  1  -0.84760     27.774724411200    -28.241410305600    -14.197249359500
     320  107  2   0.42380     27.906734473300    -27.415749320900    -13.648744772500
     321  107  2   0.42380     28.660582143500    -28.567469652400    -14.527312051300
     322  108  1  -0.84760    -23.341438067400    -22.317151377100     30.790126765700
     323  108  2   0.42380    -22.424315279900    -22.678179142700     30.621174864200
     324  108  2   0.42380    -23.511064628300    -22.285780599200     31.775135752600
     325  109  1  -0.84760     26.584598139500     16.057521257800    -27.599734494900
     326  109  2   0.42380     26.246872763400     15.187087124300    -27.957904830800
     327  109  2   0.42380     26.906533689500     15.929537044700    -26.661663312700
     328  110  1  -0.84760     25.821363092300    -13.484806895100     18.749893390400
     329  110  2   0.42380     26.748261778500    -13.336695391700     18.405042976500
     330  110  2   0.42380     25.307769899900    -12.628002330700     18.703980742500
     331  111  1  -0.84760     23.985398908000     28.376140514400     14.989669098100
     332  111  2   0.42380     24.354471704900     27.447712779200     15.032180402900
     333  111  2   0.42380     23.565986627400     28.527436883400     14.094569803300
     334  112  1  -0.84760    -12.829733516300     30.539695761200     32.435768228800
     335  112  2   0.42380    -13.266552673400     31.429315263100     32.302478447300
     336  112  2   0.42380    -12.457125327500     30.486796104300     33.362247998700
     337  113  1  -0.84760     -4.751455644840     13.221628276700     -8.128604620930
     338  113  2   0.42380     -3.849705224790     13.173724562100     -8.558199097230
     339  113  2   0.42380     -4.686687785720     13.737311220400     -7.274276682740
     340  114  1  -0.84760     24.107287647400     28.493931588900    -19.815272492300