LAMMPS Atom File

         4500 atoms
         3000 bonds
         1500 angles
           0 dihedrals
           0 impropers

           2 atom types
           1 bond types
           1 angle types

         0.0  35.535346563 xlo xhi
         0.0  35.535346563 ylo yhi
         0.0  35.535346563 zlo zhi

Masses

         1   15.9994
         2   1.00794

Atoms

       1    1  1  -0.84760    -17.677678759900      1.365291090510     17.259635855000
       2    1  2   0.42380    -17.690483403100      1.376838026270     18.259487198642
       3    1  2   0.42380    -16.844501310700      1.810643715430     16.931799954400
       4    2  1  -0.84760    -16.104078734600    -11.144385457200     -8.912289812820
       5    2  2   0.42380    -16.042384892700    -11.331296056300     -7.931852003570
       6    2  2   0.42380    -15.254467598600    -11.424558874700     -9.359127337720
       7    3  1  -0.84760     -9.218928626430     15.002696612900     -6.399505467850
       8    3  2   0.42380     -8.930065652290     14.047123821700     -6.340863990220
       9    3  2   0.42380     -9.766084995580     15.135387726100     -7.225951458940
      10    4  1  -0.84760     15.832310126900    -10.451149920100      5.294561305300
      11    4  2   0.42380     15.142204151600    -11.104697038200      5.605414819670
      12    4  2   0.42380     15.678313189700     -9.567886674910      5.737428083320
      13    5  1  -0.84760     -0.142006824057      8.005083698750     -8.547027034670
      14    5  2   0.42380      0.785303260188      8.182927036240     -8.217682602550
      15    5  2   0.42380     -0.098316283952      7.551724196260     -9.437283345070
      16    6  1  -0.84760     -6.003300821240    -11.479189709000      3.965303281510
      17    6  2   0.42380     -6.215212960230    -11.965095115600      4.813235578990
      18    6  2   0.42380     -5.730802454500    -12.137143694600      3.263276791300
      19    7  1  -0.84760    -12.052998873600     -3.496973163330     17.558160213300
      20    7  2   0.42380    -12.516860066800     -2.660348848220     17.849523472642
      21    7  2   0.42380    -11.444187097200     -3.811466951820     18.286474622042
      22    8  1  -0.84760     16.382349302400     16.918792178500    -12.597962074400
      23    8  2   0.42380     16.217551372200     17.386197346600    -13.466509166400
      24    8  2   0.42380     15.518687079900     16.561041645100    -12.242853469600
      25    9  1  -0.84760    -11.958557493000     -0.316089748178     10.691986325400
      26    9  2   0.42380    -12.321000776300     -0.361144260430      9.761070132950
      27    9  2   0.42380    -11.005475157800     -0.014640734388     10.664371936700
      28   10  1  -0.84760     -6.474364114470    -13.582185037900      0.988980846628
      29   10  2   0.42380     -7.154188819870    -12.883780130000      0.765219914906
      30   10  2   0.42380     -5.677885867320    -13.474793970200      0.393926596675
      31   11  1  -0.84760     -0.116962524646      8.707469393510      8.962688983420
      32   11  2   0.42380     -0.976568002134      8.767753263750      8.455299312590
      33   11  2   0.42380      0.382337884188      9.569564009550      8.876132789360
      34   12  1  -0.84760    -13.747357940400      8.271558442160     12.289754879800
      35   12  2   0.42380    -12.911200585300      8.656011463440     11.898555759100
      36   12  2   0.42380    -14.140479467200      7.609899847130     11.651269665600
      37   13  1  -0.84760    -14.545636544800     11.101002132300      8.556780151000
      38   13  2   0.42380    -14.946704161100     11.836511346300      8.010729820690
      39   13  2   0.42380    -13.769302021300     11.457221032300      9.076792461410
      40   14  1  -0.84760      5.498701470140      1.321259865230     14.807348312200
      41   14  2   0.42380      4.742903072650      0.666643718270     14.791648550800
      42   14  2   0.42380      6.319953026070      0.873754279557     15.161304005300
      43   15  1  -0.84760     -7.282148735290    -14.716669718700     -2.568920713680
      44   15  2   0.42380     -7.652119060250    -15.575210554900     -2.923927180200
      45   15  2   0.42380     -7.339611440350    -14.011466171200     -3.275593193750
      46   16  1  -0.84760     17.281431336100      6.983305682330      1.348491442390
      47   16  2   0.42380     17.040460556800      7.647626350180      2.056030228460
      48   16  2   0.42380     18.177262496142      7.212206101430      0.967583145349
      49   17  1  -0.84760      1.569263067160      1.907989658800     13.338506090500
      50   17  2   0.42380      2.446421951590      1.527717497060     13.631738719100
      51   17  2   0.42380      1.558054312340      1.990193067910     12.341953551300
      52   18  1  -0.84760    -10.695948557600      6.423743847260      3.395992712120
      53   18  2   0.42380    -10.320203681700      7.349614398120      3.356249646380
      54   18  2   0.42380    -10.499023985400      5.947051194240      2.539263567390
      55   19  1  -0.84760     10.922531780700     -1.091596339820     13.788797819300
      56   19  2   0.42380      9.977229688590     -0.775736056564     13.707334722900
      57   19  2   0.42380     10.936927492700     -2.090083931620     13.841857149200
      58   20  1  -0.84760     -3.760497046220     -0.475030967923     -6.978646205990
      59   20  2   0.42380     -3.392411727310     -0.384592879750     -6.053262960940
      60   20  2   0.42380     -4.377412048710     -1.261144056090     -7.016621096430
      61   21  1  -0.84760     -6.796014464190     15.382737462800     10.281270435800
      62   21  2   0.42380     -6.415932072190     15.816648661700     11.098129326100
      63   21  2   0.42380     -6.599353113590     14.402494162500     10.302421924500
      64   22  1  -0.84760     16.456698928500      8.935271771580    -13.241529578800
      65   22  2   0.42380     16.774782477100      7.993398840510    -13.349687970900
      66   22  2   0.42380     15.652125554400      9.083476007630    -13.816592349400
      67   23  1  -0.84760    -11.180950858900    -13.555996835900    -16.099679074100
      68   23  2   0.42380    -11.756883080700    -13.856569525300    -15.339443496000
      69   23  2   0.42380    -10.696047306100    -14.342672827800    -16.481790874700
      70   24  1  -0.84760     12.712040380100     -8.199554244750      7.422999582770
      71   24  2   0.42380     13.183472930800     -8.425286102380      8.275523176890
      72   24  2   0.42380     13.373630347700     -7.853313870260      6.757855750330
      73   25  1  -0.84760     -6.582515225760     -5.192965636590    -11.736075420700
      74   25  2   0.42380     -6.020843630000     -5.288773089770    -12.557869768700
      75   25  2   0.42380     -6.434882130890     -5.980512538470    -11.137765846400
      76   26  1  -0.84760      6.383468603570      9.745371007640     -0.044918228047
      77   26  2   0.42380      5.685436996360      9.257131115640      0.478888685978
      78   26  2   0.42380      6.709432128830      9.163037128080     -0.789656459184
      79   27  1  -0.84760      6.527687924740     -1.594747669240      0.539791918394
      80   27  2   0.42380      6.856162734550     -2.484829735210      0.223788413417
      81   27  2   0.42380      5.618259800270     -1.421643849850      0.161670834426
      82   28  1  -0.84760      0.803915876216     12.461350877400     -0.180702902122
      83   28  2   0.42380      0.495406467443     12.783535761700      0.714293659332
      84   28  2   0.42380      0.455752427708     11.537657843900     -0.340619733349
      85   29  1  -0.84760     -1.400353861580    -15.314491889100    -13.487993615700
      86   29  2   0.42380     -2.309452617060    -14.904314996800    -13.415231195200
      87   29  2   0.42380     -0.994422570089    -15.071144435000    -14.368903261000
      88   30  1  -0.84760     13.915049728200      2.764275332210      8.027261909420
      89   30  2   0.42380     13.861320499700      1.801902121870      7.760895669020
      90   30  2   0.42380     12.994643119300      3.113185253620      8.203652218210
      91   31  1  -0.84760      0.363563187260     17.318265563100      8.948086159520
      92   31  2   0.42380      0.309476512613     18.307214039142      9.086127976770
      93   31  2   0.42380     -0.553893642006     16.953083517100      8.790241173030
      94   32  1  -0.84760    -13.915186967500     -7.310690981390    -11.359373693500
      95   32  2   0.42380    -13.456536821000     -6.426106189960    -11.443930124000
      96   32  2   0.42380    -14.659233472600     -7.365362122820    -12.025260969600
      97   33  1  -0.84760     -6.183515542630     -8.340022451170     -9.746058315280
      98   33  2   0.42380     -5.943478077690     -8.725762032940    -10.636893311500
      99   33  2   0.42380     -7.010866308350     -8.784338110740     -9.402438896260
     100   34  1  -0.84760    -12.475370165200     10.247143471900     10.040093589000
     101   34  2   0.42380    -11.543415958400      9.890046909940     10.102890100600
     102   34  2   0.42380    -12.930508848100      9.852363955540      9.241972098960
     103   35  1  -0.84760      8.929152940900    -14.690751643300    -13.022326420200
     104   35  2   0.42380      9.418419072530    -15.489695843800    -13.372050335400
     105   35  2   0.42380      8.030315670990    -14.633776635300    -13.456889891600
     106   36  1  -0.84760     -0.194676531119      9.933075268280     14.602278627800
     107   36  2   0.42380     -0.583307239703      9.730830285340     13.703355305500
     108   36  2   0.42380     -0.491348374640      9.238437473710     15.257613772200
     109   37  1  -0.84760      6.857976492060      4.338293978950     -1.636178351120
     110   37  2   0.42380      7.769426034410      4.597791991240     -1.316928428080
     111   37  2   0.42380      6.781484938710      3.341341303880     -1.651488671950
     112   38  1  -0.84760    -15.596621615200    -14.734979357700    -12.879018552000
     113   38  2   0.42380    -16.238010807100    -14.642149127700    -12.117439631000
     114   38  2   0.42380    -14.988978760700    -15.511069264100    -12.710333583300
     115   39  1  -0.84760      3.485571701530     15.673434369800    -17.672609826100
     116   39  2   0.42380      4.213112223140     14.992108374300    -17.753106269400
     117   39  2   0.42380      3.195488557780     15.740095421000    -16.717932878700
     118   40  1  -0.84760      6.485034847860     11.384430419800     16.285043411900
     119   40  2   0.42380      6.533393146150     12.359543438100     16.501413642100
     120   40  2   0.42380      5.946335580940     10.914208138400     16.984110008100
     121   41  1  -0.84760    -10.249591218900    -12.575379398800     13.194031034600
     122   41  2   0.42380    -10.952909740800    -12.130554758900     13.748534503000
     123   41  2   0.42380    -10.482085603100    -12.485117989100     12.225630683900
     124   42  1  -0.84760     14.960657175600    -16.103846987500    -11.924138257900
     125   42  2   0.42380     15.292384192000    -15.166375264000    -11.818762955700
     126   42  2   0.42380     15.357238916400    -16.680051660400    -11.209497720400
     127   43  1  -0.84760    -10.381361017600      1.298031795200     -8.739417979870
     128   43  2   0.42380    -10.400189705700      1.445581167550     -7.750542526020
     129   43  2   0.42380     -9.993291048790      0.397328063953     -8.934698516140
     130   44  1  -0.84760     -9.976337328720     -1.666346752300     -9.775871545340
     131   44  2   0.42380    -10.072332217400     -2.635532650490    -10.002727614500
     132   44  2   0.42380     -9.834537630450     -1.567015051640     -8.790972535890
     133   45  1  -0.84760      3.339857214810      6.771977918690     10.844288657100
     134   45  2   0.42380      2.673760173790      6.031792763310     10.936161763600
     135   45  2   0.42380      3.198116836180      7.241685660730      9.972919445900
     136   46  1  -0.84760     -3.367842099710      9.838820455030      5.551492359570
     137   46  2   0.42380     -2.893949222580      8.958276013140      5.559679352750
     138   46  2   0.42380     -3.585684628800     10.091347116700      4.608743762290
     139   47  1  -0.84760      7.513528567270     -8.991483165990      7.406990015290
     140   47  2   0.42380      7.631410573730     -9.162810528450      6.428853640630
     141   47  2   0.42380      8.129937925540     -8.258061653530      7.693577502970
     142   48  1  -0.84760      8.846034783600    -12.581130611700    -16.247398566900
     143   48  2   0.42380      9.052452883280    -12.039727115000    -17.062428518400
     144   48  2   0.42380      9.141543337800    -13.525616889800    -16.390996494300
     145   49  1  -0.84760     -3.256416455900      2.485436939100     17.735926070100
     146   49  2   0.42380     -3.775559612880      3.337897767940     17.674274485800
     147   49  2   0.42380     -2.747292237910      2.466721299040     18.596415614142
     148   50  1  -0.84760    -10.995729549100      2.490444375970     -5.095950521460
     149   50  2   0.42380    -11.038029737200      2.955410844880     -5.980267702600
     150   50  2   0.42380    -10.054339076400      2.500492802180     -4.758781413940
     151   51  1  -0.84760      9.658207796770     11.994885281400     16.144842580100
     152   51  2   0.42380     10.400494210100     12.236255557100     16.769943588500
     153   51  2   0.42380      9.700538223050     12.580391018500     15.335280249700
     154   52  1  -0.84760      7.265051786700     -4.385436724400     -3.451845407650
     155   52  2   0.42380      6.393108582670     -4.002407683100     -3.146880159700
     156   52  2   0.42380      7.502008024060     -5.171161536140     -2.880453894070
     157   53  1  -0.84760     -8.437643655110     -7.819805996410      2.240885932050
     158   53  2   0.42380     -8.102737748450     -7.191943368160      1.538300311840
     159   53  2   0.42380     -9.294647596690     -8.235034554500      1.935714687250
     160   54  1  -0.84760     -5.065593861920     -3.673468436850      1.096153005570
     161   54  2   0.42380     -4.818095027090     -3.722436339780      2.063802979080
     162   54  2   0.42380     -4.983104339370     -4.581143052500      0.684665131178
     163   55  1  -0.84760    -16.988247921600     -8.244274868350     -7.430281461960
     164   55  2   0.42380    -17.875489968542     -8.172158082160     -6.974649242630
     165   55  2   0.42380    -17.108248432200     -8.666910202280     -8.328601701050
     166   56  1  -0.84760     -5.672758178340     -9.071027531670    -16.999816844900
     167   56  2   0.42380     -5.144712468250     -9.291256685900    -17.819979540742
     168   56  2   0.42380     -5.441314722120     -9.715756988220    -16.271285545300
     169   57  1  -0.84760      2.883075461820      9.064367021270      9.546475913090
     170   57  2   0.42380      2.661059673940     10.035129878800      9.455215492500
     171   57  2   0.42380      3.549984135180      8.807773280610      8.846909995070
     172   58  1  -0.84760     -6.969472400950      4.284461395890     14.463843870000
     173   58  2   0.42380     -6.357508316330      4.282363330700     15.254726640900
     174   58  2   0.42380     -6.934001454460      3.392772349010     14.012587340300
     175   59  1  -0.84760    -11.978836975700     -0.193939032916     -3.917220308740
     176   59  2   0.42380    -12.202728061800      0.741558500283     -3.643875934390
     177   59  2   0.42380    -12.555062810000     -0.835926631874     -3.411438032790
     178   60  1  -0.84760     -3.597238948330     11.348925171200     12.162552221800
     179   60  2   0.42380     -3.691972373490     12.095892749800     12.820628976200
     180   60  2   0.42380     -3.060030545950     10.610978872900     12.571015675700
     181   61  1  -0.84760     -8.904318581240    -16.514867551100     -0.551639219803
     182   61  2   0.42380     -8.761687190030    -16.876001832100     -1.473180492530
     183   61  2   0.42380     -8.117102341340    -15.958219203800     -0.286246663179
     184   62  1  -0.84760    -10.008272963800    -17.054181156300      3.383965571610
     185   62  2   0.42380    -10.093852531300    -17.058320417900      4.380288312560
     186   62  2   0.42380    -10.000389203800    -17.995374486742      3.046189075780
     187   63  1  -0.84760    -10.692538887300     13.812043607100    -14.472336263900
     188   63  2   0.42380    -10.536784453600     14.672088535800    -14.958199698300
     189   63  2   0.42380     -9.897376331430     13.601809528100    -13.903549711800
     190   64  1  -0.84760    -11.568163613300      7.086013113170    -14.631591310800
     191   64  2   0.42380    -11.170178305800      7.875967051610    -15.098046528600
     192   64  2   0.42380    -10.876593983600      6.369477738650    -14.540440313800
     193   65  1  -0.84760     -8.709507836050     -4.736744792850    -10.693183610200
     194   65  2   0.42380     -7.970574390280     -5.010677600010    -11.308763158200
     195   65  2   0.42380     -9.399747344150     -4.227265773820    -11.206993449200
     196   66  1  -0.84760     -0.715221592700     17.481249477500     13.351719086900
     197   66  2   0.42380     -0.255983435393     17.621617686900     14.228871913200
     198   66  2   0.42380     -0.131884205944     16.930871359300     12.754390517100
     199   67  1  -0.84760    -15.334626178400    -13.951113700200      6.667401380160
     200   67  2   0.42380    -15.998553589300    -13.205942836100      6.604785277040
     201   67  2   0.42380    -14.822236395300    -13.870047706600      7.522319513590
     202   68  1  -0.84760    -10.453315251800     -4.118723976360     10.025697034600
     203   68  2   0.42380    -10.957805894500     -3.606098928000     10.720466601600
     204   68  2   0.42380    -10.871494518900     -5.019267172050      9.906751445250
     205   69  1  -0.84760     -1.272019366110    -16.629219690300      6.347580021990
     206   69  2   0.42380     -0.736799323542    -16.177505606400      5.633791613250
     207   69  2   0.42380     -0.969078246574    -17.577586417600      6.441533353540
     208   70  1  -0.84760     12.083608697300    -11.900204516800     -0.570951425554
     209   70  2   0.42380     12.810815580400    -12.182823698500      0.054585581490
     210   70  2   0.42380     11.504416633400    -12.686586196700     -0.785754606587
     211   71  1  -0.84760     10.598287408200      1.056150846170     17.765801038400
     212   71  2   0.42380     11.057539713600      0.635150240544     16.983595304600
     213   71  2   0.42380      9.869593166540      0.452395402993     18.089040991142
     214   72  1  -0.84760      2.580871849140     -7.336220866090      5.285919349190
     215   72  2   0.42380      2.216840786380     -7.998127846960      5.941175431980
     216   72  2   0.42380      3.469853385260     -7.650914524920      4.953233717510
     217   73  1  -0.84760     17.503693826700      6.258190066530    -14.861570396900
     218   73  2   0.42380     17.733774070100      5.286105079580    -14.907547127300
     219   73  2   0.42380     17.457365138600      6.633886901330    -15.787154288800
     220   74  1  -0.84760      2.712435755170     -9.740231740180    -12.041736127100
     221   74  2   0.42380      3.150583526410    -10.606683000200    -12.281086799900
     222   74  2   0.42380      2.385916768850     -9.290940917840    -12.873314811600
     223   75  1  -0.84760     10.205462271100     -8.565258965870      2.454462306770
     224   75  2   0.42380     10.678844738500     -8.384289406730      3.316529043340
     225   75  2   0.42380      9.748934056550     -7.731656170310      2.143514773380
     226   76  1  -0.84760      0.258369799474      6.199367239610    -10.257867435300
     227   76  2   0.42380     -0.484713895231      5.549098761920    -10.415910244700
     228   76  2   0.42380      0.850902235808      6.230474304060    -11.062813186600
     229   77  1  -0.84760     10.275893074600      3.603181637690    -16.442416937200
     230   77  2   0.42380      9.871294674540      3.043219296820    -17.165426142900
     231   77  2   0.42380     11.155089453400      3.211982146400    -16.170430383400
     232   78  1  -0.84760      2.483260815210    -16.427274785400     -4.678377397060
     233   78  2   0.42380      1.694933995990    -16.451469190800     -4.063596576880
     234   78  2   0.42380      2.597050761630    -15.501213855800     -5.038187072670
     235   79  1  -0.84760    -16.059138510800    -10.773688525000     14.888874660800
     236   79  2   0.42380    -15.568696008000    -10.882560315200     15.753520880200
     237   79  2   0.42380    -16.600114606300     -9.933090638060     14.916078642000
     238   80  1  -0.84760      5.712126903190     -5.396694070850     -5.780301064860
     239   80  2   0.42380      6.674874227690     -5.362739983410     -5.512038676320
     240   80  2   0.42380      5.150747600780     -4.989993368730     -5.059573780990
     241   81  1  -0.84760     14.819856612500      6.121239662450     12.969619301500
     242   81  2   0.42380     15.072940537700      5.223219519550     12.609746616100
     243   81  2   0.42380     14.866977139500      6.105439046090     13.968383536200
     244   82  1  -0.84760     16.140763475700     16.638027035900    -16.590454870600
     245   82  2   0.42380     15.452449367300     16.459670012500    -15.887310176900
     246   82  2   0.42380     16.405811778500     15.776530992700    -17.023552971200
     247   83  1  -0.84760     10.341774033000     -5.968845791370     -8.098568328780
     248   83  2   0.42380     11.208926760600     -5.835930526830     -8.578547161130
     249   83  2   0.42380      9.891944582020     -6.792118642020     -8.444798423370
     250   84  1  -0.84760    -13.951002025900      6.712265528900      1.496851219500
     251   84  2   0.42380    -14.460579292700      5.957716878950      1.910357379070
     252   84  2   0.42380    -14.130670357300      7.554182460240      2.005668643940
     253   85  1  -0.84760      5.849200918480     12.710199021400      0.418274812363
     254   85  2   0.42380      6.469320252140     12.238079547200     -0.208267456067
     255   85  2   0.42380      5.295035676330     13.366984085700     -0.093129395309
     256   86  1  -0.84760     15.654881974200    -10.630951536400      0.288923070597
     257   86  2   0.42380     15.013763590600     -9.886556597130      0.102259221060
     258   86  2   0.42380     15.530489719900    -11.355768734200     -0.388695256188
     259   87  1  -0.84760     10.340182439400     11.245196791800     -4.665884444330
     260   87  2   0.42380     10.234052803700     10.417856404000     -4.114300921040
     261   87  2   0.42380     11.057620539400     11.101580841300     -5.347542006050
     262   88  1  -0.84760      7.815937987110      8.024469709380     10.818628510700
     263   88  2   0.42380      7.684724144710      7.846482473400     11.793873849800
     264   88  2   0.42380      7.003278410280      7.732603881970     10.314248940400
     265   89  1  -0.84760     -0.802630033416     17.730246875500    -11.167381139100
     266   89  2   0.42380     -1.150672352280     18.201805510942    -10.357134881700
     267   89  2   0.42380     -0.362535093716     16.875485892800    -10.892244615600
     268   90  1  -0.84760     -0.364475254056      3.744797303680     -7.709658518620
     269   90  2   0.42380      0.485711420305      3.926755897250     -8.203696663870
     270   90  2   0.42380     -0.823123613316      4.609697033770     -7.505721912220
     271   91  1  -0.84760    -16.610520253800     13.014321110200     15.111914110000
     272   91  2   0.42380    -16.455974445000     12.510115357800     15.961556477200
     273   91  2   0.42380    -16.519301782900     12.392550809500     14.334044658400
     274   92  1  -0.84760      9.004689418890     15.186486473400     16.035787257200
     275   92  2   0.42380      9.649633501170     15.909094130200     15.787019684800
     276   92  2   0.42380      8.416009151740     14.981443064300     15.253858396300
     277   93  1  -0.84760    -14.099005803900     13.732675113700     -2.800971299090
     278   93  2   0.42380    -14.351169302200     12.914474625500     -2.284288097100
     279   93  2   0.42380    -13.674561795500     13.463337654000     -3.665439121780
     280   94  1  -0.84760     -8.072782682810     -7.217605818590    -14.954383408600
     281   94  2   0.42380     -8.880044112590     -7.777252033210    -14.766966497800
     282   94  2   0.42380     -7.247438056470     -7.745135820590    -14.753091717900
     283   95  1  -0.84760     -6.201388729220     -7.289824157050      5.438243226170
     284   95  2   0.42380     -6.525135441840     -6.378772901860      5.182951870070
     285   95  2   0.42380     -5.974539371660     -7.806422727740      4.612612990700
     286   96  1  -0.84760    -15.346167312000      1.217693443800     -1.578597768570
     287   96  2   0.42380    -15.052353734900      1.364649557850     -2.523096303480
     288   96  2   0.42380    -14.853588679300      1.844554645330     -0.974932857706
     289   97  1  -0.84760     15.795204453500     -5.713232939710      2.176692888440
     290   97  2   0.42380     15.538300995700     -4.762856218850      2.001237190790
     291   97  2   0.42380     16.355186555900     -6.052149774990      1.420680042160
     292   98  1  -0.84760     -3.995220069410     -6.476227528250      2.077792129700
     293   98  2   0.42380     -4.422535163930     -5.619821874570      2.367569917590
     294   98  2   0.42380     -3.292057868590     -6.283038580360      1.393510791550
     295   99  1  -0.84760    -15.983713362000    -13.808539434200     -1.343251830420
     296   99  2   0.42380    -15.301500975900    -13.471794910600     -1.992242882730
     297   99  2   0.42380    -16.855283076500    -13.941887445400     -1.815040491430
     298  100  1  -0.84760    -15.235824018300    -13.087249575900      9.315486049440
     299  100  2   0.42380    -16.229114965100    -13.133352195500      9.209431141870
     300  100  2   0.42380    -14.993773276900    -12.267871920800      9.835131791320
     301  101  1  -0.84760     -1.192860211570     12.009046822000      7.062592173480
     302  101  2   0.42380     -1.671220556250     11.180437282700      7.353414476770
     303  101  2   0.42380     -0.991197096754     11.951705970300      6.084817140630
     304  102  1  -0.84760    -13.337483260900     10.660086464300    -10.586554502400
     305  102  2   0.42380    -13.713331981400     10.646427314900    -11.513134864300
     306  102  2   0.42380    -13.719011116800      9.899767412290    -10.060863115500
     307  103  1  -0.84760     16.141086497500    -14.360833824000     -7.887223515050
     308  103  2   0.42380     16.651382884100    -13.627811197200     -7.437473110450
     309  103  2   0.42380     16.780921138100    -15.037977735600     -8.250662307260
     310  104  1  -0.84760     13.743976135100      9.933944372240     17.585785230500
     311  104  2   0.42380     13.151929185100     10.553540156000     17.070439255700
     312  104  2   0.42380     13.186618006000      9.371065898690     18.196129182742
     313  105  1  -0.84760     15.979301143600     -8.564209787110     10.684711638500
     314  105  2   0.42380     15.863459531300     -8.607749776980      9.692398688760
     315  105  2   0.42380     16.954213655900     -8.536651150570     10.905587429300
     316  106  1  -0.84760     13.203488837400    -17.473772632300      6.691160284570
     317  106  2   0.42380     13.827513645600    -16.959643805500      6.102717774030
     318  106  2   0.42380     12.583636204400    -18.017418269342      6.125269716780
     319  107  1  -0.84760     -5.776298273220    -17.019646442500    -17.284350743900
     320  107  2   0.42380     -5.600549490210    -16.938642499800    -18.265447439742
     321  107  2   0.42380     -5.772054569690    -17.985033014242    -17.023562020600
     322  108  1  -0.84760     -6.052706030840     10.138605424300     -6.285520339780
     323  108  2   0.42380     -5.116779018360     10.261709099200     -5.955541382050
     324  108  2   0.42380     -6.203664926120     10.720599788800     -7.084578517700
     325  109  1  -0.84760     13.832381385200     16.518619428400    -10.364012556900
     326  109  2   0.42380     13.122807857600     16.791623252000    -11.013608062800
     327  109  2   0.42380     13.693551484100     16.998340448600     -9.497644274130
     328  110  1  -0.84760      9.518428978570     17.094731908200    -15.569351322400
     329  110  2   0.42380      8.964609510260     17.195042480400    -16.395923633600
     330  110  2   0.42380      9.760167775290     17.999342315242    -15.218292402000
     331  111  1  -0.84760     -4.032868793240     13.814357653000     -5.345568666810
     332  111  2   0.42380     -4.904066167900     13.561048664500     -5.766103672220
     333  111  2   0.42380     -3.288739943910     13.642785536200     -5.991196473190
     334  112  1  -0.84760     16.395954918700     14.587259100400      4.166338798020
     335  112  2   0.42380     16.419142609800     13.610679258300      3.952436617190
     336  112  2   0.42380     15.447946526600     14.877430649500      4.297031417110
     337  113  1  -0.84760     -0.405058756208      0.109365377170      6.278594369700
     338  113  2   0.42380     -1.169248676380     -0.410360038232      6.660561984150
     339  113  2   0.42380     -0.731654717725      0.673653876903      5.520363819680
     340  114  1  -0.84760      1.717384977820     -9.479496268130      0.042779976744