LAMMPS Atom File

         4500 atoms
         3000 bonds
         1500 angles
           0 dihedrals
           0 impropers

           2 atom types
           1 bond types
           1 angle types

         0.0  53.0827569194 xlo xhi
         0.0  53.0827569194 ylo yhi
         0.0  53.0827569194 zlo zhi

Masses

         1   15.9994
         2   1.00794

Atoms

       1    1  1  -0.84760    -18.231832436500      6.885606337500    -19.578172261900
       2    1  2   0.42380    -17.775201335500      7.422988680620    -18.869153041600
       3    1  2   0.42380    -18.998046811900      7.408751287670    -19.951314181400
       4    2  1  -0.84760    -23.293578897000    -14.806285657800    -13.756091898200
       5    2  2   0.42380    -22.390038321100    -14.912795360900    -13.341037551400
       6    2  2   0.42380    -23.250002497200    -14.113947844300    -14.476348414600
       7    3  1  -0.84760    -12.622284364900     18.573393066700     -7.249076494380
       8    3  2   0.42380    -12.940621811100     17.923982031100     -6.558477785170
       9    3  2   0.42380    -13.391118753700     19.131361467200     -7.561430374860
      10    4  1  -0.84760     23.336011237900    -17.404678709800      6.539813097380
      11    4  2   0.42380     23.671976407500    -18.320265822900      6.318843318770
      12    4  2   0.42380     23.993943477100    -16.722320212100      6.221203541290
      13    5  1  -0.84760      2.888100096640     13.245048053200    -10.210915065800
      14    5  2   0.42380      3.585035181100     12.962458674400     -9.551806022450
      15    5  2   0.42380      2.138730697270     13.699545998800     -9.729378856610
      16    6  1  -0.84760     -7.756852499530    -18.291557319000      8.464026742020
      17    6  2   0.42380     -7.101922174690    -17.610501521000      8.791485548030
      18    6  2   0.42380     -8.540133927620    -17.828366973200      8.049388456280
      19    7  1  -0.84760    -19.464101435000     -6.881693694730     23.062121220500
      20    7  2   0.42380    -18.657742041400     -6.292731662260     23.116049437900
      21    7  2   0.42380    -19.175841236100     -7.838207290750     23.017536488100
      22    8  1  -0.84760     25.054791653600     22.981148193000    -19.906218858600
      23    8  2   0.42380     24.134370813200     23.315732540900    -19.704033817800
      24    8  2   0.42380     25.022457667700     22.377261087000    -20.702632618200
      25    9  1  -0.84760    -17.736732929700     -0.135205357943     20.617353312700
      26    9  2   0.42380    -18.253574142100      0.688670393504     20.384750846400
      27    9  2   0.42380    -17.207817165700     -0.432400471460     19.822417353600
      28   10  1  -0.84760    -10.498430634100    -22.761871670100     -1.575871989240
      29   10  2   0.42380    -10.523424101300    -23.758982445700     -1.504140352480
      30   10  2   0.42380    -11.425441057600    -22.397862243000     -1.485601221160
      31   11  1  -0.84760     -1.610746196370     13.279309290000     13.606483153900
      32   11  2   0.42380     -1.399086439790     13.495796223800     12.653417807300
      33   11  2   0.42380     -1.815121421110     12.303923282500     13.689265422200
      34   12  1  -0.84760    -20.240672853700      9.640782063570     20.754891112500
      35   12  2   0.42380    -20.021769018100     10.529458946100     21.157798681500
      36   12  2   0.42380    -20.552084214500      9.769300416320     19.813346638000
      37   13  1  -0.84760    -20.999805287500     18.525025062100     11.964724448300
      38   13  2   0.42380    -20.531312262000     18.906241627200     11.167737487600
      39   13  2   0.42380    -20.672101947400     18.979551757400     12.792985279300
      40   14  1  -0.84760     10.881698416900      3.733520537090     20.000420254600
      41   14  2   0.42380     10.425689776800      4.535044013340     19.613617672900
      42   14  2   0.42380     11.630661578600      4.029796622040     20.593104541300
      43   15  1  -0.84760    -12.530855171900    -21.128053196100     -3.830390191340
      44   15  2   0.42380    -13.109254310400    -21.734741488000     -3.285061159390
      45   15  2   0.42380    -12.829912522200    -20.181931320000     -3.706220562410
      46   16  1  -0.84760    -24.210251222100     13.022923166600     -1.601575134750
      47   16  2   0.42380    -24.269932734200     12.634692035300     -0.681947652664
      48   16  2   0.42380    -23.423778189400     13.638390438900     -1.653152314930
      49   17  1  -0.84760      2.121373154770      4.039783334490     20.862082079100
      50   17  2   0.42380      1.368241021990      3.462361365000     21.177321448100
      51   17  2   0.42380      2.106648449120      4.091067443540     19.863506532100
      52   18  1  -0.84760    -11.770088824200      5.770564456910      6.843347036470
      53   18  2   0.42380    -11.288759907000      5.087036439770      6.294610375400
      54   18  2   0.42380    -11.988726185200      6.562231482230      6.272855121210
      55   19  1  -0.84760     15.622957493700      0.374295418374     16.125458808500
      56   19  2   0.42380     14.828910032300     -0.232950763823     16.098242945800
      57   19  2   0.42380     15.315022870800      1.325696787480     16.128879756300
      58   20  1  -0.84760     -6.082983490470     -0.059446901007     -7.556375314030
      59   20  2   0.42380     -5.976823341850      0.577681811339     -8.319786754050
      60   20  2   0.42380     -5.494506827820     -0.854791362863     -7.701710803520
      61   21  1  -0.84760    -11.298084703400     23.336415155200     15.416402124300
      62   21  2   0.42380    -10.489735297200     22.749901680600     15.365675587800
      63   21  2   0.42380    -11.900147137500     23.141907801200     14.642007060600
      64   22  1  -0.84760     12.096162320600     -5.129223578620     26.266337631100
      65   22  2   0.42380     12.275868003500     -5.988003624890     26.746132065790
      66   22  2   0.42380     12.410753473300     -5.203949881860     25.320056284800
      67   23  1  -0.84760    -24.768442356700     10.413000498200    -18.867585426700
      68   23  2   0.42380    -25.625781250100     10.443182220900    -19.381452224100
      69   23  2   0.42380    -24.500657842900      9.460636765500    -18.721658133600
      70   24  1  -0.84760    -17.712217588300    -21.818522879400     24.994887133800
      71   24  2   0.42380    -18.218978848600    -21.482665329300     24.200914381700
      72   24  2   0.42380    -18.278242353000    -21.727933107200     25.814282922700
      73   25  1  -0.84760     19.494656873300    -12.640154697200     13.926682231100
      74   25  2   0.42380     19.334797696300    -13.530893769000     13.501207261800
      75   25  2   0.42380     20.477331533400    -12.500539017500     14.048575522000
      76   26  1  -0.84760     -9.408882572340     -7.713383110090    -18.422008401200
      77   26  2   0.42380    -10.369975857700     -7.983651275950    -18.364957412200
      78   26  2   0.42380     -9.205553291940     -7.050968697690    -17.700992208600
      79   27  1  -0.84760     14.961958197200     11.009659807600      3.115473317040
      80   27  2   0.42380     13.998180175200     10.799123107500      2.951747258500
      81   27  2   0.42380     15.052794787400     11.505263056100      3.979259247690
      82   28  1  -0.84760     10.359730710500      0.789297824539      1.677649169490
      83   28  2   0.42380     10.649419047000      0.527137246470      2.598166686460
      84   28  2   0.42380      9.446467639870      1.194625057150      1.718397154200
      85   29  1  -0.84760     -9.709837320600     11.487744281700     -5.038241298030
      86   29  2   0.42380    -10.642438374200     11.613292823800     -5.376609202040
      87   29  2   0.42380     -9.229971862570     12.365003868000     -5.050272941640
      88   30  1  -0.84760     -1.268144734660     19.716407859100     -3.479377041700
      89   30  2   0.42380     -2.161147682990     19.454466729900     -3.113409038800
      90   30  2   0.42380     -0.556794926834     19.496360945300     -2.811873628480
      91   31  1  -0.84760     -1.443989453730    -22.994217248300    -19.162711492300
      92   31  2   0.42380     -2.353859284320    -22.580860039300    -19.127036442800
      93   31  2   0.42380     -0.961989174256    -22.813603119200    -18.305358433700
      94   32  1  -0.84760     18.617248017800      2.910421141840     10.681565621700
      95   32  2   0.42380     19.225605238700      3.463357580030     10.112212667000
      96   32  2   0.42380     18.213493995100      3.484946948190     11.393536679400
      97   33  1  -0.84760      4.816343091040    -25.567321282900      8.152445241010
      98   33  2   0.42380      5.674750162080    -25.946706516700      7.807185708500
      99   33  2   0.42380      4.106931818880    -25.657801444500      7.453482447090
     100   34  1  -0.84760    -20.197517204800    -11.824157993200    -13.326404984200
     101   34  2   0.42380    -20.466598830800    -11.765660707500    -14.287744230300
     102   34  2   0.42380    -20.200900037200    -10.909116078000    -12.923060404700
     103   35  1  -0.84760    -12.355007468200     -6.840018786870    -15.703553107600
     104   35  2   0.42380    -12.857900618800     -7.609379390980    -15.309620702400
     105   35  2   0.42380    -12.216957113900     -6.138855219320    -15.004044886600
     106   36  1  -0.84760    -17.164139553300     14.892882826800     12.400446391000
     107   36  2   0.42380    -16.555165716600     14.150616565200     12.120818668600
     108   36  2   0.42380    -17.335120267400     15.495351315100     11.620832822700
     109   37  1  -0.84760     12.395431823900    -20.892211285300    -18.012060897000
     110   37  2   0.42380     12.775743094300    -21.781942551500    -17.759589885500
     111   37  2   0.42380     12.635451618900    -20.217059334000    -17.314522123400
     112   38  1  -0.84760     -0.480617546613     12.006852903800    -26.107695001500
     113   38  2   0.42380     -1.339547054570     11.583573278000    -25.819468599600
     114   38  2   0.42380      0.267933808632     11.660241489900    -25.542423919400
     115   39  1  -0.84760     11.375017371900      5.528640456180     -2.367076499310
     116   39  2   0.42380     11.899544178600      6.377382986360     -2.434216252890
     117   39  2   0.42380     11.587687840400      5.072866579460     -1.502760905820
     118   40  1  -0.84760    -24.156772358000    -23.934828674000    -18.717861502600
     119   40  2   0.42380    -23.840630746900    -23.079729261500    -18.306936355600
     120   40  2   0.42380    -25.032165684500    -23.780782317600    -19.176071327900
     121   41  1  -0.84760      9.784653030580     19.930639911100    -24.553648639600
     122   41  2   0.42380      9.251962151150     19.333864403800    -25.153731484600
     123   41  2   0.42380     10.702281007300     20.050963274400    -24.932437742600
     124   42  1  -0.84760      8.765475225460     22.106013523900     24.931427120100
     125   42  2   0.42380      8.171094286760     22.902140030700     25.044978363700
     126   42  2   0.42380      9.683040306540     22.325066438600     25.263225466300
     127   43  1  -0.84760    -17.541233376500    -16.241479872600     19.789427109900
     128   43  2   0.42380    -18.211819731600    -15.692313146900     19.290698879600
     129   43  2   0.42380    -17.677562559500    -16.121807647000     20.772835932500
     130   44  1  -0.84760     20.800075090900    -22.380141350000    -17.892066449900
     131   44  2   0.42380     20.133673697900    -22.282181873700    -17.152936471800
     132   44  2   0.42380     21.366843294200    -21.557719637000    -17.941018770400
     133   45  1  -0.84760    -14.902400379300      1.256969070890    -14.190784675600
     134   45  2   0.42380    -15.152638631700      1.660003684690    -13.310475686000
     135   45  2   0.42380    -15.516452371600      0.494556628381    -14.394910661800
     136   46  1  -0.84760    -11.471663764400      3.536007407510    -14.779532291700
     137   46  2   0.42380    -11.652503818300      2.614056656590    -14.437036032200
     138   46  2   0.42380    -10.488588989500      3.652039810660    -14.921308412500
     139   47  1  -0.84760      5.658168927810     13.239191023000     18.465144583100
     140   47  2   0.42380      5.790613620430     12.892431702600     19.393700654100
     141   47  2   0.42380      5.154708177180     12.564108223600     17.925894653500
     142   48  1  -0.84760      0.682299552134     14.408778996600      8.923051304650
     143   48  2   0.42380      0.599687782995     13.429027195200      8.740673391100
     144   48  2   0.42380      1.211813452840     14.548583019200      9.759753082000
     145   49  1  -0.84760     11.973578223300    -17.162896623500     14.845389616500
     146   49  2   0.42380     11.565204289200    -17.460614103500     15.708288818100
     147   49  2   0.42380     12.933952758900    -16.927615286700     14.994799937200
     148   50  1  -0.84760     14.058169383700    -16.894364978600    -22.698474484500
     149   50  2   0.42380     14.388424456700    -17.527476144200    -23.398547222800
     150   50  2   0.42380     13.637036420400    -16.101172720300    -23.138352954600
     151   51  1  -0.84760     -6.799832769480      5.106273135530     25.951527582400
     152   51  2   0.42380     -6.176249590260      5.492355470010     26.631295520490
     153   51  2   0.42380     -6.598201965570      4.134620866440     25.828089796900
     154   52  1  -0.84760    -16.194535877800      6.273839408520     -7.306028599780
     155   52  2   0.42380    -17.046934249000      6.703256958140     -7.604386748440
     156   52  2   0.42380    -16.039331176000      6.477375673710     -6.339341220480
     157   53  1  -0.84760     14.716421753300     21.078666129400     19.445856712600
     158   53  2   0.42380     13.913283510600     21.365306432800     18.923548087800
     159   53  2   0.42380     15.141209862700     20.291453919100     18.998808619000
     160   54  1  -0.84760     10.839095089300     -5.135093329790     -4.012738320400
     161   54  2   0.42380     11.023040552500     -4.152980032540     -4.052956947270
     162   54  2   0.42380     11.437675508000     -5.558747190550     -3.332871503550
     163   55  1  -0.84760    -14.612379291600     -9.590095538280      3.875546870380
     164   55  2   0.42380    -15.219312155000     -8.805770317030      4.003868523490
     165   55  2   0.42380    -13.685489081100     -9.344204314680      4.159117044900
     166   56  1  -0.84760     -9.639603705350     -5.818296853300     -0.042299617594
     167   56  2   0.42380     -9.481636736550     -6.208724519150     -0.949279592297
     168   56  2   0.42380    -10.603069954100     -5.925036284850      0.203341342561
     169   57  1  -0.84760     24.408926885300     -5.881806789590     -7.447370657560
     170   57  2   0.42380     25.341691432700     -5.522257913770     -7.421391726670
     171   57  2   0.42380     24.236297910500     -6.296436854220     -8.340836463610
     172   58  1  -0.84760    -10.733812076600     -8.206777944590     24.840699211300
     173   58  2   0.42380    -10.813409484100     -7.472214136370     25.514553991200
     174   58  2   0.42380    -10.402239204400     -9.036506426670     25.289709318700
     175   59  1  -0.84760      4.748119006040     13.100175618800     14.367986514000
     176   59  2   0.42380      5.058236758080     12.249194994200     13.944124559500
     177   59  2   0.42380      4.068442013780     13.537487208900     13.779091141900
     178   60  1  -0.84760    -11.637561895100      8.617357164680     25.418091306400
     179   60  2   0.42380    -11.762400570100      8.202762392230     26.319493813600
     180   60  2   0.42380    -10.732336389900      8.380984911640     25.064969595600
     181   61  1  -0.84760    -17.241855710800     -0.412020684161     -2.725591046990
     182   61  2   0.42380    -17.181270238400     -0.581281481784     -3.709298413500
     183   61  2   0.42380    -18.061619515700     -0.853859760310     -2.361220994680
     184   62  1  -0.84760      2.041111480170     24.031507406800     17.413936953000
     185   62  2   0.42380      2.189121692180     23.274372749200     16.777666501500
     186   62  2   0.42380      1.194680542100     24.507268212400     17.174758519800
     187   63  1  -0.84760    -13.823281803200     26.391771712400     -3.926927881320
     188   63  2   0.42380    -14.417853189700     25.645340826400     -4.225802100350
     189   63  2   0.42380    -12.881529241400     26.061914322600     -3.861382365480
     190   64  1  -0.84760    -14.712150231500    -26.110360121400      6.444944154020
     191   64  2   0.42380    -14.770093198900    -27.014629358790      6.021931436780
     192   64  2   0.42380    -13.760101689100    -25.804433910900      6.448511585430
     193   65  1  -0.84760    -10.488427312400     22.300513651700    -23.081162447700
     194   65  2   0.42380    -11.330410955600     22.695612931600    -22.713793282500
     195   65  2   0.42380    -10.715354011800     21.630537342000    -23.788011807600
     196   66  1  -0.84760    -16.656358800200     10.766123190400    -19.114714554600
     197   66  2   0.42380    -16.474682415700      9.825263636380    -19.400681320000
     198   66  2   0.42380    -16.310171938300     11.398005259400    -19.808169461200
     199   67  1  -0.84760    -11.586884043800     -4.711315346430    -14.839873158900
     200   67  2   0.42380    -11.532691175700     -3.712951676800    -14.858124630500
     201   67  2   0.42380    -12.298252147200     -5.018120285860    -15.472191236000
     202   68  1  -0.84760      0.807045928252    -25.453908756500     20.220858650600
     203   68  2   0.42380      0.430652010360    -26.051896974200     19.513230421900
     204   68  2   0.42380      1.544643776290    -25.928812873700     20.700874789900
     205   69  1  -0.84760    -24.413583531000    -22.052713046900     13.732143378000
     206   69  2   0.42380    -25.137371615300    -22.290329709200     13.084324629500
     207   69  2   0.42380    -23.559099572400    -21.899500922800     13.235773345200
     208   70  1  -0.84760    -16.175557861800     -4.957771881970     15.986758987700
     209   70  2   0.42380    -15.361654761100     -4.909057382490     16.565713770300
     210   70  2   0.42380    -16.994619323400     -4.909803753540     16.558455918600
     211   71  1  -0.84760     -3.585721009470    -22.418073019000      5.781682398120
     212   71  2   0.42380     -3.624921860340    -23.295120597100      5.302880937160
     213   71  2   0.42380     -2.794824160250    -22.407410438700      6.393538985300
     214   72  1  -0.84760     17.673997229600    -18.022010925800      3.642464452470
     215   72  2   0.42380     17.643607359000    -17.286530655600      2.965600191350
     216   72  2   0.42380     17.171699976300    -18.814437325000      3.296403950360
     217   73  1  -0.84760     -0.743091103128     -7.899535624860      7.631248006010
     218   73  2   0.42380     -1.668882874930     -8.071915509920      7.294803700810
     219   73  2   0.42380     -0.082505236377     -8.103590677760      6.908760741040
     220   74  1  -0.84760     23.242766848200      8.865248843030    -18.843228692000
     221   74  2   0.42380     23.719819116200      9.743337737370    -18.880390867800
     222   74  2   0.42380     23.510216297900      8.307115968490    -19.628695741700
     223   75  1  -0.84760      0.258459559213    -13.676346533100    -18.575281459900
     224   75  2   0.42380      0.940703013074    -14.383913096000    -18.391179779300
     225   75  2   0.42380     -0.497089887781    -13.764902113900    -17.926202926700
     226   76  1  -0.84760     13.420694259200    -14.504798093000      5.110157723220
     227   76  2   0.42380     13.781015226200    -14.985557547800      5.909556964800
     228   76  2   0.42380     13.723883856000    -13.552064533500      5.129518324880
     229   77  1  -0.84760     -3.975370819220      7.058800885690    -14.663204430500
     230   77  2   0.42380     -4.358188575250      6.135099720670    -14.648147093200
     231   77  2   0.42380     -4.248042411910      7.518877962790    -15.508177380200
     232   78  1  -0.84760     14.160845470600      1.061699616100     24.102536281600
     233   78  2   0.42380     13.217209063300      1.103620959350     24.430854620800
     234   78  2   0.42380     14.619621685000      0.270508327895     24.506937976100
     235   79  1  -0.84760     -0.387973691884    -20.989810612500     -8.775011590440
     236   79  2   0.42380      0.295743626778    -21.076020356700     -8.050374779220
     237   79  2   0.42380     -0.064221663631    -21.459506356000     -9.596334019690
     238   80  1  -0.84760     25.071267026100    -12.539687998300     24.975857999400
     239   80  2   0.42380     24.872067787800    -13.276302849000     25.622169244300
     240   80  2   0.42380     24.735982165200    -12.792763105000     24.068368576700
     241   81  1  -0.84760      7.309897810940     -6.549090473640     -7.523218977640
     242   81  2   0.42380      7.363922429070     -5.575072573760     -7.743151856830
     243   81  2   0.42380      7.768852523680     -7.077951620800     -8.237128256680
     244   82  1  -0.84760     20.415325797800      7.807729200450     18.252552598500
     245   82  2   0.42380     20.896770343500      7.837444377360     19.128525290800
     246   82  2   0.42380     20.836999605200      7.118222598650     17.663679228200
     247   83  1  -0.84760     21.233523670000    -26.102259776300     25.456811489800
     248   83  2   0.42380     20.731845357600    -26.857556876790     25.035094569500
     249   83  2   0.42380     20.588303468800    -25.479489630900     25.899358931400
     250   84  1  -0.84760     16.241959735100    -13.109321232100    -10.355530140100
     251   84  2   0.42380     16.821596164600    -13.873783224800    -10.637699364600
     252   84  2   0.42380     16.324574372800    -12.365753261500    -11.019067248800
     253   85  1  -0.84760    -17.807418026000      7.089081180740      4.005948498250
     254   85  2   0.42380    -17.561461368200      6.279610490590      3.472785742350
     255   85  2   0.42380    -18.303649557200      7.733365686830      3.424010578320
     256   86  1  -0.84760     10.702001663500     16.503097583300     -4.266734624760
     257   86  2   0.42380     10.868774372300     16.607194948000     -3.286249743550
     258   86  2   0.42380     11.564880712400     16.596745058600     -4.763393358180
     259   87  1  -0.84760     25.442150422000    -15.659785933000      0.637065985552
     260   87  2   0.42380     25.023959002200    -16.539069896700      0.865047668177
     261   87  2   0.42380     25.612860789600    -15.617138787700     -0.347331897120
     262   88  1  -0.84760     12.451135989400     15.223933122400     -6.206129087910
     263   88  2   0.42380     13.100254943700     14.678943121200     -5.675440401690
     264   88  2   0.42380     12.937791091600     15.965500992700     -6.667912484430
     265   89  1  -0.84760      8.243217034710     11.650598287100     15.891209266400
     266   89  2   0.42380      9.029972960950     11.088299937100     15.636580756400
     267   89  2   0.42380      7.403888762320     11.218198440200     15.561727212900
     268   90  1  -0.84760     -4.074960540690     23.962099470600    -14.370926187400
     269   90  2   0.42380     -3.705054337210     23.069317114000    -14.113809357100
     270   90  2   0.42380     -3.324625545880     24.612867258400    -14.487110015800
     271   91  1  -0.84760      1.026518661380      4.956649673930    -11.034558830800
     272   91  2   0.42380      1.590095799960      5.261438434960    -10.266779813200
     273   91  2   0.42380      0.945625674662      5.696128074720    -11.702861172200
     274   92  1  -0.84760    -25.829059399300     25.412096905300    -24.525387050000
     275   92  2   0.42380    -25.829138991200     26.409442037400    -24.452567540400
     276   92  2   0.42380    -25.258768865800     25.025040911000    -23.800848324600
     277   93  1  -0.84760     15.147496775500     20.014669887100     26.350404471400
     278   93  2   0.42380     15.394660406100     19.120025102600     25.978220579500
     279   93  2   0.42380     14.526281129900     20.478405438700     25.718707977800
     280   94  1  -0.84760    -22.569706758100     25.124514133000     -5.266771462170
     281   94  2   0.42380    -22.682637185300     25.554739994900     -4.371141836480
     282   94  2   0.42380    -22.935072664200     25.728468635000     -5.975112280000
     283   95  1  -0.84760    -12.702687654100     -8.957947698950    -23.831417975900
     284   95  2   0.42380    -12.889862166000     -7.985754077220    -23.972149152200
     285   95  2   0.42380    -13.566430294300     -9.457592402050    -23.765814452000
     286   96  1  -0.84760     -1.021178830690    -22.879143171400      5.693473083710
     287   96  2   0.42380     -0.692436264878    -23.709898858100      5.244281237830
     288   96  2   0.42380     -1.054734349580    -22.132172711900      5.029463174340
     289   97  1  -0.84760    -11.713362973900     -8.776316555940      9.025556327430
     290   97  2   0.42380    -11.152660721200     -8.277586579250      8.364586287140
     291   97  2   0.42380    -12.089874590400     -8.135139566040      9.694234927600
     292   98  1  -0.84760    -21.688594797000      1.424652401920     -4.070880996300
     293   98  2   0.42380    -22.648895597200      1.388524175970     -4.347498285030
     294   98  2   0.42380    -21.423852868300      0.547416417289     -3.670420338510
     295   99  1  -0.84760    -21.119135680100     -6.339331067150     11.023303775200
     296   99  2   0.42380    -20.630490182700     -5.910877046250     10.263269085300
     297   99  2   0.42380    -21.646203751500     -5.645553770920     11.514091215300
     298  100  1  -0.84760     -2.518076722960    -16.033076145000     -1.996623927150
     299  100  2   0.42380     -3.513819460490    -15.944295132400     -2.021409658300
     300  100  2   0.42380     -2.223434688190    -16.679315315300     -2.700584867900
     301  101  1  -0.84760     24.637713348800    -19.102708066200     -4.096197976420
     302  101  2   0.42380     24.708896947300    -18.768121701700     -5.035870717290
     303  101  2   0.42380     25.510265820900    -18.966751589400     -3.626977324840
     304  102  1  -0.84760      1.113575390230     18.805898469300      8.421431881720
     305  102  2   0.42380      0.620555946121     17.966177324500      8.193835250350
     306  102  2   0.42380      2.097400488670     18.626872330200      8.415282313220
     307  103  1  -0.84760    -17.379735713300     17.528362227800    -14.590135384500
     308  103  2   0.42380    -16.945733249000     18.428654647800    -14.556737488300
     309  103  2   0.42380    -18.114384557900     17.537451328800    -15.268522046700
     310  104  1  -0.84760     21.271670186200    -25.648839579100    -11.441922357800
     311  104  2   0.42380     20.349495902500    -25.643320100800    -11.828657572000
     312  104  2   0.42380     21.629653813700    -24.715360916200    -11.420351352100
     313  105  1  -0.84760    -16.606468669300    -18.366771643400     24.073508263000
     314  105  2   0.42380    -16.268186547500    -19.035120730700     24.735984454000
     315  105  2   0.42380    -16.352028450900    -18.654467712100     23.150203791400
     316  106  1  -0.84760     20.974848868700     10.801340867400    -20.919207547800
     317  106  2   0.42380     21.683940170200     11.484465768300    -21.093935610600
     318  106  2   0.42380     20.391747800200     10.712144589900    -21.726695732200
     319  107  1  -0.84760     20.594516913400    -10.997722279100     16.462315498100
     320  107  2   0.42380     19.630823390200    -10.838591886900     16.676727045400
     321  107  2   0.42380     21.150501710800    -10.272517663500     16.868467157700
     322  108  1  -0.84760     21.027631010900     22.986499909000     12.422307652200
     323  108  2   0.42380     20.725523279600     22.707250812500     13.333763005400
     324  108  2   0.42380     21.023618825300     22.193980286500     11.812474437100
     325  109  1  -0.84760     -9.443260015590    -23.591685871700    -25.030560447800
     326  109  2   0.42380     -9.232360970000    -22.996458692200    -24.255172675500
     327  109  2   0.42380     -9.480646927360    -24.541798742100    -24.720902971800
     328  110  1  -0.84760     -3.923705666010     12.487488698600     -6.127411572710
     329  110  2   0.42380     -4.219569299360     12.488375122300     -5.172181796840
     330  110  2   0.42380     -4.531977330300     11.902801507900     -6.664204336730
     331  111  1  -0.84760     17.982665286200     20.477944477300    -18.149195722600
     332  111  2   0.42380     17.700202309500     19.738800620600    -18.760653837100
     333  111  2   0.42380     18.761501654900     20.176318117400    -17.599254407600
     334  112  1  -0.84760     11.946463278600    -24.828515267900     25.874049170100
     335  112  2   0.42380     12.698378515400    -25.482946236300     25.953695791700
     336  112  2   0.42380     11.589263958400    -24.843265908000     24.940137469600
     337  113  1  -0.84760    -19.061984047100     13.635898519300     -0.637130833384
     338  113  2   0.42380    -18.072735350800     13.568828418700     -0.507174615812
     339  113  2   0.42380    -19.504739894900     12.827766476700     -0.248685391848
     340  114  1  -0.84760      1.909563373930     22.367727034000     -3.706642040190