LAMMPS Atom File

         4500 atoms
         3000 bonds
         1500 angles
           0 dihedrals
           0 impropers

           2 atom types
           1 bond types
           1 angle types

         0.0  765.585833577 xlo xhi
         0.0  765.585833577 ylo yhi
         0.0  765.585833577 zlo zhi

Masses

         1   15.9994
         2   1.00794

Atoms

       1    1  1  -0.84760   -223.543916614000    117.261790155000   -246.491583157000
       2    1  2   0.42380   -222.745717939000    117.660142697000   -246.039704714000
       3    1  2   0.42380   -223.862981606000    117.879620675000   -247.210250659000
       4    2  1  -0.84760   -335.094822437000   -265.276302941000   -149.493098052000
       5    2  2   0.42380   -334.419430811000   -265.894261889000   -149.090639497000
       6    2  2   0.42380   -335.467118391000   -265.686148276000   -150.325818007000
       7    3  1  -0.84760   -154.215402548000    230.806317415000    -47.435488662500
       8    3  2   0.42380   -154.542912394000    231.743582561000    -47.554951406300
       9    3  2   0.42380   -154.996849267000    230.185108772000    -47.376829931000
      10    4  1  -0.84760    316.771261604000   -219.908521251000    123.654817154000
      11    4  2   0.42380    317.724157789000   -219.772283222000    123.925793279000
      12    4  2   0.42380    316.241340529000   -219.090027041000    123.876742552000
      13    5  1  -0.84760    -15.940420140300    191.608973298000   -151.127370822000
      14    5  2   0.42380    -16.205632215400    192.549060015000   -150.913129090000
      15    5  2   0.42380    -15.360768424400    191.603645707000   -151.942217743000
      16    6  1  -0.84760   -124.710010521000   -281.281077498000    150.853790148000
      17    6  2   0.42380   -124.671662088000   -281.704916716000    151.758715401000
      18    6  2   0.42380   -124.044877638000   -281.721679270000    150.250906804000
      19    7  1  -0.84760   -295.722956626000   -126.937032643000    358.151882515000
      20    7  2   0.42380   -295.076254947000   -127.526371544000    357.667675330000
      21    7  2   0.42380   -296.652808667000   -127.139297254000    357.844532212000
      22    8  1  -0.84760    380.752005842000    331.453523212000   -268.695401843000
      23    8  2   0.42380    380.888043668000    331.514067176000   -267.706549914000
      24    8  2   0.42380    379.781891091000    331.308781054000   -268.890150598000
      25    9  1  -0.84760   -223.905859438000     15.947339848900    351.683225231000
      26    9  2   0.42380   -224.272637377000     15.648037235300    350.802377974000
      27    9  2   0.42380   -222.954020400000     15.652024020600    351.765632806000
      28   10  1  -0.84760   -175.643589245000   -349.458200064000     20.726091354400
      29   10  2   0.42380   -175.668582712000   -350.455310839000     20.797822991200
      30   10  2   0.42380   -176.570599669000   -349.094190637000     20.816362122500
      31   11  1  -0.84760     -8.299170089870    182.040114977000    219.669094073000
      32   11  2   0.42380     -8.880550160360    182.786663019000    219.992611051000
      33   11  2   0.42380     -8.780507987420    181.526648217000    218.958695794000
      34   12  1  -0.84760   -241.497767480000    184.704991068000    293.586034377000
      35   12  2   0.42380   -241.840988668000    183.863049320000    293.169701206000
      36   12  2   0.42380   -240.522208234000    184.800938642000    293.388352258000
      37   13  1  -0.84760   -294.321610084000    292.128642899000    157.802966322000
      38   13  2   0.42380   -294.642138237000    292.053141600000    156.858741106000
      39   13  2   0.42380   -293.939430450000    291.252348043000    158.096302394000
      40   14  1  -0.84760    182.411392040000     51.766522797900    324.319356626000
      41   14  2   0.42380    182.394974717000     52.227161023000    325.206792762000
      42   14  2   0.42380    181.595642647000     52.017661081700    323.798316809000
      43   15  1  -0.84760   -142.946949912000   -299.375586986000    -63.984751549600
      44   15  2   0.42380   -142.808393667000   -299.123032081000    -64.942362215500
      45   15  2   0.42380   -142.115895726000   -299.178794989000    -63.464538276400
      46   16  1  -0.84760    378.848971341000    167.573073454000    -52.265677752300
      47   16  2   0.42380    378.610013651000    167.387026386000    -53.218717998300
      48   16  2   0.42380    379.819232743000    167.378792648000    -52.121290147700
      49   17  1  -0.84760     34.398356650000     40.145552414100    288.102841968000
      50   17  2   0.42380     34.887785725100     40.926866313700    288.490150335000
      51   17  2   0.42380     34.283533247000     40.278855453200    287.118440685000
      52   18  1  -0.84760   -207.712592311000     72.371250550900     91.358172215100
      53   18  2   0.42380   -208.294540043000     72.930628516100     91.948454459900
      54   18  2   0.42380   -207.891127834000     72.599593943500     90.401101495700
      55   19  1  -0.84760    189.337314732000    -53.850351878900    319.081921688000
      56   19  2   0.42380    189.281977443000    -53.546778135600    318.130722042000
      57   19  2   0.42380    190.264787393000    -54.169634910900    319.276479666000
      58   20  1  -0.84760    -62.893582761800      1.615772938420    -83.238071831200
      59   20  2   0.42380    -61.970650606400      2.000478067440    -83.252150189800
      60   20  2   0.42380    -62.846422412600      0.644801563744    -83.003571317300
      61   21  1  -0.84760   -195.601516319000    346.396384226000    224.882517407000
      62   21  2   0.42380   -194.656399937000    346.336483778000    224.561321265000
      63   21  2   0.42380   -196.220684432000    346.108011975000    224.152125530000
      64   22  1  -0.84760    136.660793154000   -129.881640105000   -376.330774263000
      65   22  2   0.42380    137.249977828000   -129.075663128000   -376.273655685000
      66   22  2   0.42380    136.244547518000   -129.926549443000   -377.238916719000
      67   23  1  -0.84760   -306.513168417000    211.107957199000   -257.734962039000
      68   23  2   0.42380   -307.485494803000    210.924233717000   -257.879277946000
      69   23  2   0.42380   -306.347579383000    212.092369623000   -257.794227975000
      70   24  1  -0.84760   -235.450912236000   -261.811842167000    371.178253555000
      71   24  2   0.42380   -235.091655483000   -261.553732471000    372.075089087000
      72   24  2   0.42380   -236.446211622000   -261.714999777000    371.177427113000
      73   25  1  -0.84760    274.214580359000   -203.431430878000    171.159327690000
      74   25  2   0.42380    274.314730151000   -204.208320960000    171.780948007000
      75   25  2   0.42380    273.729005919000   -203.724104254000    170.335580303000
      76   26  1  -0.84760   -105.677615850000   -122.725885726000   -246.776448884000
      77   26  2   0.42380   -105.384258721000   -123.609127069000   -247.142271690000
      78   26  2   0.42380   -105.904962779000   -122.111192603000   -247.531740707000
      79   27  1  -0.84760    183.316015603000    188.862007866000     34.318214259700
      80   27  2   0.42380    183.755706742000    189.552121857000     34.893031083600
      81   27  2   0.42380    183.944053528000    188.584413525000     33.591227501500
      82   28  1  -0.84760    129.598430562000    -22.943358366600      8.750760072930
      83   28  2   0.42380    130.202628936000    -23.721212260700      8.577879637530
      84   28  2   0.42380    130.147891303000    -22.121483181600      8.901139842270
      85   29  1  -0.84760   -125.594830930000    148.746079873000    -70.305848953700
      86   29  2   0.42380   -125.008806788000    149.506940223000    -70.027160538100
      87   29  2   0.42380   -125.272690645000    148.379609475000    -71.178732155500
      88   30  1  -0.84760     11.628383563600    265.768918528000    -47.790471837200
      89   30  2   0.42380     12.604964192000    265.554212904000    -47.776623681900
      90   30  2   0.42380     11.180343789900    265.333818518000    -47.009479940600
      91   31  1  -0.84760    -60.272243404300   -338.518682748000   -275.875635947000
      92   31  2   0.42380    -60.424205356900   -338.792380321000   -276.825371280000
      93   31  2   0.42380    -59.319988173200   -338.694842176000   -275.626281118000
      94   32  1  -0.84760    290.807520100000     76.958551407000    182.367627065000
      95   32  2   0.42380    291.781171490000     77.089426104000    182.180879150000
      96   32  2   0.42380    290.269437643000     77.348697727700    181.620463684000
      97   33  1  -0.84760     60.054352165100    377.255975521000    132.175415171000
      98   33  2   0.42380     59.457353089400    377.840301235000    131.625728385000
      99   33  2   0.42380     60.042011372700    377.566946392000    133.125754490000
     100   34  1  -0.84760   -282.491724135000   -191.891658317000   -175.458396787000
     101   34  2   0.42380   -283.337363394000   -192.417993175000   -175.369707105000
     102   34  2   0.42380   -282.060659535000   -192.098937650000   -176.336587307000
     103   35  1  -0.84760   -157.232284515000   -160.898772201000   -189.890979882000
     104   35  2   0.42380   -156.352286776000   -161.282949132000   -189.611673482000
     105   35  2   0.42380   -157.966266012000   -161.332396495000   -189.368255162000
     106   36  1  -0.84760   -248.788388715000    187.764064080000    160.083024939000
     107   36  2   0.42380   -249.467998387000    188.098823023000    160.735763129000
     108   36  2   0.42380   -248.819166621000    186.764997468000    160.052716115000
     109   37  1  -0.84760    187.923099908000   -298.187861320000   -238.027932425000
     110   37  2   0.42380    187.154936821000   -298.679674300000   -238.437865912000
     111   37  2   0.42380    187.588473446000   -297.604062432000   -237.288200048000
     112   38  1  -0.84760      1.276210343290    173.865459899000    359.729095047000
     113   38  2   0.42380      1.683766880350    173.089442526000    359.247748286000
     114   38  2   0.42380      1.669665728760    173.932904073000    360.645961528000
     115   39  1  -0.84760    161.621637225000     87.425839493100    -19.861287066900
     116   39  2   0.42380    162.267813213000     86.710048799100    -20.126051633200
     117   39  2   0.42380    162.030282692000     87.997111330500    -19.149488380200
     118   40  1  -0.84760   -364.459112688000   -348.758443227000   -270.462051594000
     119   40  2   0.42380   -363.859876852000   -348.767914186000   -271.262568123000
     120   40  2   0.42380   -364.446243599000   -347.848824306000   -270.046807322000
     121   41  1  -0.84760     69.186850589300    281.976753996000   -362.011756272000
     122   41  2   0.42380     69.663475114700    281.104662548000   -362.122596553000
     123   41  2   0.42380     69.135286953600    282.207272442000   -361.040055476000
     124   42  1  -0.84760    139.979790234000    282.487464181000    360.197294495000
     125   42  2   0.42380    139.943072579000    281.968815439000    361.051493123000
     126   42  2   0.42380    139.540811469000    281.961473145000    359.468850211000
     127   43  1  -0.84760   -213.880780713000   -253.798448191000    296.717501598000
     128   43  2   0.42380   -213.855192155000   -253.254363562000    295.878861542000
     129   43  2   0.42380   -213.924588095000   -254.769695433000    296.483493677000
     130   44  1  -0.84760    307.500095056000   -290.423733985000   -263.297114210000
     131   44  2   0.42380    306.665466774000   -290.492958585000   -263.843560535000
     132   44  2   0.42380    307.334432075000   -289.830568160000   -262.509262650000
     133   45  1  -0.84760   -223.372582454000     29.055532967600   -189.800282713000
     134   45  2   0.42380   -222.803473082000     29.412775306900   -189.059679963000
     135   45  2   0.42380   -223.610837051000     28.103545384000   -189.608047473000
     136   46  1  -0.84760   -134.474336473000     32.951421834600   -241.047310012000
     137   46  2   0.42380   -134.576362921000     33.475029103000   -240.201481405000
     138   46  2   0.42380   -134.308269180000     31.990368126600   -240.826408622000
     139   47  1  -0.84760     97.959181900700    170.470932641000    248.449510869000
     140   47  2   0.42380     98.358763939200    171.096059125000    247.779025170000
     141   47  2   0.42380     98.684004996600    169.924626105000    248.869249656000
     142   48  1  -0.84760    -16.489095213000    222.786465697000    103.253809714000
     143   48  2   0.42380    -17.471895291700    222.613876934000    103.319514541000
     144   48  2   0.42380    -16.042476492600    222.496739836000    104.100326485000
     145   49  1  -0.84760    164.539975662000   -257.186022260000    214.940284278000
     146   49  2   0.42380    164.626594415000   -257.503556534000    213.996001917000
     147   49  2   0.42380    164.612954414000   -257.965735440000    215.562153603000
     148   50  1  -0.84760    227.319454755000   -240.859043243000   -348.084152138000
     149   50  2   0.42380    227.981964110000   -241.574918006000   -348.304616826000
     150   50  2   0.42380    226.408458578000   -241.262643894000   -347.999343647000
     151   51  1  -0.84760    -74.689661243600     38.677642036500   -369.294662048000
     152   51  2   0.42380    -75.163419949100     38.978020621600   -368.466818225000
     153   51  2   0.42380    -73.923382879700     39.292297348200   -369.481788521000
     154   52  1  -0.84760   -247.507042854000    105.510156372000   -107.706225877000
     155   52  2   0.42380   -248.208274904000    104.863240211000   -107.406604294000
     156   52  2   0.42380   -247.196648990000    106.051006875000   -106.924473754000
     157   53  1  -0.84760    215.736797045000    314.278756690000    301.388112012000
     158   53  2   0.42380    215.029260899000    314.488360141000    302.062989034000
     159   53  2   0.42380    215.315613056000    313.864257622000    300.581393616000
     160   54  1  -0.84760    179.354215562000    -56.190334534900    -45.543626061100
     161   54  2   0.42380    178.907050383000    -56.930983618900    -45.042146014100
     162   54  2   0.42380    179.388002934000    -56.419388607400    -46.516453201600
     163   55  1  -0.84760   -197.774847123000   -129.654483953000     96.152734358000
     164   55  2   0.42380   -198.052443450000   -129.871840107000     95.216947746900
     165   55  2   0.42380   -196.776732160000   -129.659186212000     96.213925941500
     166   56  1  -0.84760    -99.077711198900    -77.293263389100     37.478392023700
     167   56  2   0.42380    -99.467728564000    -78.150137872900     37.815515998000
     168   56  2   0.42380    -98.119589801600    -77.230455795200     37.757781705100
     169   57  1  -0.84760    372.169254802000   -104.881197895000   -124.093842459000
     170   57  2   0.42380    371.209361574000   -104.616978001000   -124.000072325000
     171   57  2   0.42380    372.731427006000   -104.061470718000   -124.203431546000
     172   58  1  -0.84760   -154.924028062000   -117.647328736000    354.593965879000
     173   58  2   0.42380   -155.530660952000   -118.071020280000    353.921298047000
     174   58  2   0.42380   -154.669244298000   -118.323283081000    355.285464944000
     175   59  1  -0.84760     82.993485475200    174.392432041000    191.471591952000
     176   59  2   0.42380     82.315543351100    174.995355166000    191.051023073000
     177   59  2   0.42380     83.533498472000    174.909855917000    192.135413084000
     178   60  1  -0.84760   -163.478940850000    142.919463199000    316.226636956000
     179   60  2   0.42380   -164.443757982000    142.973614102000    315.969351938000
     180   60  2   0.42380   -163.252053015000    143.682468557000    316.831901141000
     181   61  1  -0.84760   -277.147753319000    -24.709350167700    -25.158008632700
     182   61  2   0.42380   -276.326453033000    -24.497998548700    -24.628106439500
     183   61  2   0.42380   -277.164845686000    -25.686281613800    -25.370876668300
     184   62  1  -0.84760    -17.247523547200    337.553732343000    277.840664148000
     185   62  2   0.42380    -17.431485677200    336.646063107000    277.463444727000
     186   62  2   0.42380    -16.853411219000    337.461066513000    278.755042908000
     187   63  1  -0.84760   -187.714687486000   -370.777686701000    -41.491887509100
     188   63  2   0.42380   -188.523129553000   -371.337632700000    -41.310553834300
     189   63  2   0.42380   -187.995668020000   -369.834949284000    -41.671598674000
     190   64  1  -0.84760   -214.434763904000   -369.013466364000     74.076958614500
     191   64  2   0.42380   -214.998698700000   -369.549916349000     73.449105956900
     192   64  2   0.42380   -214.356592631000   -369.495595396000     74.949564395300
     193   65  1  -0.84760   -150.229443143000    308.995679433000   -311.573726496000
     194   65  2   0.42380   -151.181907729000    308.759079803000   -311.765642700000
     195   65  2   0.42380   -149.861183834000    309.535793487000   -312.330470766000
     196   66  1  -0.84760   -215.667128362000    159.357690166000   -251.178226490000
     197   66  2   0.42380   -215.563240144000    158.454564460000   -250.761607722000
     198   66  2   0.42380   -216.195539818000    159.947620662000   -250.567683009000
     199   67  1  -0.84760   -167.998086901000    -68.014193205900   -215.832183842000
     200   67  2   0.42380   -168.280500844000    -68.872215473800   -215.403184830000
     201   67  2   0.42380   -167.524476322000    -68.210849943700   -216.690682035000
     202   68  1  -0.84760     -8.271097973100    380.831743097000    306.501399861000
     203   68  2   0.42380     -7.887085467130    380.775475334000    307.423011674000
     204   68  2   0.42380     -9.101762446960    380.277166098000    306.451994560000
     205   69  1  -0.84760   -357.286421325000   -340.769764255000    171.278631054000
     206   69  2   0.42380   -356.301593496000   -340.628980038000    171.380090169000
     207   69  2   0.42380   -357.652240696000   -341.180250491000    172.113901811000
     208   70  1  -0.84760   -228.406958958000    -67.463321413300    200.591185372000
     209   70  2   0.42380   -227.934690762000    -66.942324914200    199.880182279000
     210   70  2   0.42380   -228.552502755000    -68.401156286300    200.276093713000
     211   71  1  -0.84760    -52.130609998400   -306.731096048000     93.238491716600
     212   71  2   0.42380    -52.386967709000   -306.818968334000     94.201071160300
     213   71  2   0.42380    -52.309911930200   -305.797006563000     92.929739952300
     214   72  1  -0.84760    282.671479981000   -277.427105710000     59.443571710400
     215   72  2   0.42380    282.692710252000   -276.979170857000     58.549757611400
     216   72  2   0.42380    282.402618658000   -276.764184317000     60.142319745100
     217   73  1  -0.84760    230.643233091000     14.927412638000    338.707585704000
     218   73  2   0.42380    230.184543937000     14.986761018400    337.820973032000
     219   73  2   0.42380    230.525687732000     15.788661162000    339.201988443000
     220   74  1  -0.84760    -20.809783911800   -118.049547227000    109.613797298000
     221   74  2   0.42380    -21.542444766600   -117.619155609000    110.141026970000
     222   74  2   0.42380    -20.695089434400   -117.565835579000    108.746117507000
     223   75  1  -0.84760    320.910028629000    104.214850012000   -319.924197547000
     224   75  2   0.42380    321.904367421000    104.199898840000   -320.029396546000
     225   75  2   0.42380    320.617822490000    105.130405080000   -319.647838200000
     226   76  1  -0.84760    -22.506518029100   -192.036680718000   -265.001538701000
     227   76  2   0.42380    -22.997898817700   -192.155590034000   -265.864328070000
     228   76  2   0.42380    -22.865512689300   -191.236529539000   -264.521038000000
     229   77  1  -0.84760    213.481242344000   -208.649981075000     77.967088980900
     230   77  2   0.42380    212.952269418000   -208.554746748000     78.810367147500
     231   77  2   0.42380    214.447130635000   -208.778028522000     78.192174875700
     232   78  1  -0.84760    -35.335188612200    129.545917429000   -217.423652154000
     233   78  2   0.42380    -36.236514283300    129.634049113000   -216.999570981000
     234   78  2   0.42380    -34.939304223300    128.659441299000   -217.183994853000
     235   79  1  -0.84760    223.381365988000     83.943183520100   -356.181174932000
     236   79  2   0.42380    223.568588341000     83.072019625200   -355.727279285000
     237   79  2   0.42380    223.741994224000     84.692599949900   -355.625907168000
     238   80  1  -0.84760     -7.941810108060   -299.448751422000   -127.571668098000
     239   80  2   0.42380     -7.514164369270   -298.665803954000   -127.119880111000
     240   80  2   0.42380     -7.438512442340   -300.281820177000   -127.342129629000
     241   81  1  -0.84760   -378.668477042000   -210.009273992000    352.082903597000
     242   81  2   0.42380   -378.219930694000   -209.809480273000    352.954045746000
     243   81  2   0.42380   -378.064209605000   -210.571219567000    351.518033669000
     244   82  1  -0.84760    123.725184062000   -114.813619629000   -127.221964762000
     245   82  2   0.42380    122.823279770000   -114.583845903000   -126.856215281000
     246   82  2   0.42380    123.945405867000   -114.196871158000   -127.977692015000
     247   83  1  -0.84760    298.902246929000    115.102520267000    288.822355333000
     248   83  2   0.42380    298.418011816000    114.762036530000    289.628325047000
     249   83  2   0.42380    298.257780898000    115.575082831000    288.221232918000
     250   84  1  -0.84760    315.934671156000   -370.480405477000    366.453852748000
     251   84  2   0.42380    316.514307585000   -371.244867469000    366.171683524000
     252   84  2   0.42380    316.017285793000   -369.736837506000    365.790315640000
     253   85  1  -0.84760    191.383696703000   -128.675830175000   -169.644676239000
     254   85  2   0.42380    191.383049830000   -129.505596164000   -169.086565152000
     255   85  2   0.42380    190.443093591000   -128.364521185000   -169.780147632000
     256   86  1  -0.84760   -253.957983559000    106.338593029000     56.387340073900
     257   86  2   0.42380   -253.685580014000    105.459889321000     55.995324637700
     258   86  2   0.42380   -253.582097356000    106.422739080000     57.310177548300
     259   87  1  -0.84760    149.875026549000    259.876012922000    -69.707782614300
     260   87  2   0.42380    150.767772286000    260.027080683000    -69.283302249400
     261   87  2   0.42380    149.814741966000    260.404782162000    -70.554404643700
     262   88  1  -0.84760    334.960566579000   -226.792460476000      6.812300840000
     263   88  2   0.42380    334.071807124000   -227.157646575000      7.089331062920
     264   88  2   0.42380    334.840692791000   -226.181817459000      6.029520295490
     265   89  1  -0.84760    151.781843238000    213.832563618000   -108.372104931000
     266   89  2   0.42380    151.699956944000    213.637550864000   -107.394728514000
     267   89  2   0.42380    152.144853285000    214.755733282000   -108.498522798000
     268   90  1  -0.84760    135.607116717000    166.256774011000    214.272525374000
     269   90  2   0.42380    134.960229187000    165.656343772000    214.742653071000
     270   90  2   0.42380    135.890397031000    166.990370922000    214.890253336000
     271   91  1  -0.84760    -60.499160448700    346.779652954000   -212.370300777000
     272   91  2   0.42380    -60.762106509000    347.106920242000   -211.462691009000
     273   91  2   0.42380    -59.753315158300    347.343600383000   -212.724811850000
     274   92  1  -0.84760     -7.596168289530     81.563351679100   -167.282645968000
     275   92  2   0.42380     -8.401966467070     81.526729831400   -167.873702765000
     276   92  2   0.42380     -6.990048009010     82.296733118000   -167.590493123000
     277   93  1  -0.84760   -380.397818003000    354.152016856000    363.367242347000
     278   93  2   0.42380   -380.935828889000    354.422859695000    364.165483190000
     279   93  2   0.42380   -379.999966858000    353.248147535000    363.524515097000
     280   94  1  -0.84760    218.855378550000    312.401382002000    363.450775202000
     281   94  2   0.42380    219.306410199000    313.258232665000    363.201020535000
     282   94  2   0.42380    219.198463763000    311.662678675000    362.870594255000
     283   95  1  -0.84760   -333.036054346000    345.011336590000    -66.011597846600
     284   95  2   0.42380   -333.223228858000    345.983530212000    -66.152329022900
     285   95  2   0.42380   -333.899796987000    344.511691887000    -65.945994322700
     286   96  1  -0.84760   -177.046164592000   -153.074160409000   -322.033721128000
     287   96  2   0.42380   -177.135850554000   -152.208769576000   -321.540714908000
     288   96  2   0.42380   -177.900805761000   -153.588470450000   -321.962491538000
     289   97  1  -0.84760    -14.805034433000   -330.712818958000     83.620476179000
     290   97  2   0.42380    -15.410241720400   -330.219000342000     82.996082622600
     291   97  2   0.42380    -15.170928184700   -331.628921417000     83.784421439000
     292   98  1  -0.84760    356.449500289000     97.732309235200   -328.420265672000
     293   98  2   0.42380    357.382872828000     97.876183363000   -328.749075553000
     294   98  2   0.42380    356.124272380000     98.562072773300   -327.966702801000
     295   99  1  -0.84760   -135.036408194000   -160.058392284000    120.828029890000
     296   99  2   0.42380   -134.118733895000   -159.800471625000    120.525786915000
     297   99  2   0.42380   -135.090630546000   -161.052902241000    120.917527836000
     298  100  1  -0.84760   -331.939786824000     20.371569664100    -80.004906279000
     299  100  2   0.42380   -331.988563178000     20.998495826100    -79.227355988200
     300  100  2   0.42380   -330.990852942000     20.292526330800    -80.310318522500
     301  101  1  -0.84760   -308.592386521000   -113.714784607000    134.564846482000
     302  101  2   0.42380   -308.356351044000   -114.652458302000    134.819905878000
     303  101  2   0.42380   -307.764604161000   -113.225740403000    134.289869881000
     304  102  1  -0.84760    -67.785682400400   -212.972010705000      0.893053836800
     305  102  2   0.42380    -68.063470862900   -213.832088328000      0.465151918239
     306  102  2   0.42380    -68.310164276800   -212.218168580000      0.497275096723
     307  103  1  -0.84760   -352.481313996000   -302.799741073000    -54.838663793900
     308  103  2   0.42380   -352.723335621000   -303.315935685000    -55.660228554600
     309  103  2   0.42380   -353.006250523000   -303.145650258000    -54.060982317600
     310  104  1  -0.84760   -330.477259355000   -279.321644945000    200.482814913000
     311  104  2   0.42380   -329.841918275000   -280.043856569000    200.756223181000
     312  104  2   0.42380   -329.963444369000   -278.550210735000    200.107470512000
     313  105  1  -0.84760     -8.001563654960    290.684675729000    122.135910021000
     314  105  2   0.42380     -8.135294811720    290.573042843000    123.120620169000
     315  105  2   0.42380     -7.242329651470    290.107545354000    121.835104006000
     316  106  1  -0.84760   -269.951743538000    268.929811273000   -227.260505660000
     317  106  2   0.42380   -269.456272427000    269.636379147000   -226.755262929000
     318  106  2   0.42380   -270.874141068000    269.254489715000   -227.469710599000
     319  107  1  -0.84760    329.359141468000   -345.952134962000   -154.504258446000
     320  107  2   0.42380    328.359410309000   -345.931382600000   -154.493916826000
     321  107  2   0.42380    329.672134682000   -346.580421031000   -155.216502690000
     322  108  1  -0.84760   -236.652612259000   -263.250219085000    346.581713905000
     323  108  2   0.42380   -236.252770157000   -264.077235861000    346.976896832000
     324  108  2   0.42380   -237.639352448000   -263.246713403000    346.743983772000
     325  109  1  -0.84760    297.537593541000    192.139790478000   -299.175881693000
     326  109  2   0.42380    298.344960771000    191.630931145000   -299.474579425000
     327  109  2   0.42380    297.342524470000    191.923734408000   -298.219185381000
     328  110  1  -0.84760    315.649354088000   -176.437871960000    229.310895028000
     329  110  2   0.42380    314.913488290000   -176.117377423000    228.714418055000
     330  110  2   0.42380    316.000841023000   -175.671118390000    229.848059711000
     331  111  1  -0.84760    284.637144558000    336.982752996000    179.879175663000
     332  111  2   0.42380    284.240253374000    337.301698284000    180.739844758000
     333  111  2   0.42380    284.584483882000    335.985016454000    179.837358852000
     334  112  1  -0.84760   -128.462360272000   -363.094653682000   -372.774975672000
     335  112  2   0.42380   -128.665945587000   -362.488876921000   -372.005828394000
     336  112  2   0.42380   -128.536139452000   -362.582884996000   -373.630925113000
     337  113  1  -0.84760    -53.481727151400    152.411992532000    -92.363813878200
     338  113  2   0.42380    -53.397605158000    152.940178339000    -93.208765499800
     339  113  2   0.42380    -52.571247859300    152.157885977000    -92.037535902500
     340  114  1  -0.84760    270.271054338000    323.509548052000   -232.998099921000