LAMMPS Atom File

         4500 atoms
         3000 bonds
         1500 angles
           0 dihedrals
           0 impropers

           2 atom types
           1 bond types
           1 angle types

         0.0  35.5947705073 xlo xhi
         0.0  35.5947705073 ylo yhi
         0.0  35.5947705073 zlo zhi

Masses

         1   15.9994
         2   1.00794

Atoms

       1    1  1  -0.84760    -15.919558437400      2.020399622470     17.284908619700
       2    1  2   0.42380    -15.054237570300      1.977978179460     17.784328501400
       3    1  2   0.42380    -15.821616883400      2.631901882660     16.499751031800
       4    2  1  -0.84760    -16.501668173400    -10.583785214000    -11.378167465900
       5    2  2   0.42380    -15.863448369800    -10.401831675800    -12.126210507600
       6    2  2   0.42380    -17.118734291800    -11.326001347600    -11.639595498900
       7    3  1  -0.84760     -8.627126252620     14.825654633300     -7.215800924020
       8    3  2   0.42380     -9.107545505370     15.552539906300     -7.706550495140
       9    3  2   0.42380     -9.288076897290     14.148203926200     -6.892993264980
      10    4  1  -0.84760    -16.773366350600    -12.515885864000      5.259156826950
      11    4  2   0.42380    -17.679969326200    -12.385389638800      4.857856715030
      12    4  2   0.42380    -16.793708285000    -13.298637951900      5.881157932050
      13    5  1  -0.84760      1.570689668950      9.404161667370     -8.650255620130
      14    5  2   0.42380      1.938601996370      8.552487551500     -8.277037560950
      15    5  2   0.42380      2.057547062220      9.636904014150     -9.492158749140
      16    6  1  -0.84760     -4.869273174290    -11.935603760100      4.967585101470
      17    6  2   0.42380     -5.645685430730    -12.494317179100      5.259172693090
      18    6  2   0.42380     -4.866094886640    -11.076419044300      5.479240769460
      19    7  1  -0.84760    -12.610585036800     -1.901912222910     17.632739175700
      20    7  2   0.42380    -13.053078376900     -1.530773829880     18.449106701536
      21    7  2   0.42380    -13.185419029100     -2.619209199970     17.238974108800
      22    8  1  -0.84760     16.460171856000     14.552453575700    -12.708508877200
      23    8  2   0.42380     17.137065004200     13.961582524500    -12.269547527200
      24    8  2   0.42380     16.927605877400     15.231773922400    -13.274220201300
      25    9  1  -0.84760    -12.874855941000      0.632584581454     10.607706161800
      26    9  2   0.42380    -13.684323852100      0.992080980994     10.143460494400
      27    9  2   0.42380    -12.056063409000      1.072054598760     10.238321682600
      28   10  1  -0.84760     -5.765652159440    -10.029605224300      0.849980409818
      29   10  2   0.42380     -4.796776418460    -10.220179198200      1.007972052030
      30   10  2   0.42380     -5.912313552300     -9.040569638460      0.832687470187
      31   11  1  -0.84760     -0.963918933632      5.371021038250     11.565799042100
      32   11  2   0.42380     -1.681347813810      5.726762117920     10.966846551400
      33   11  2   0.42380     -0.767168308957      4.421232452960     11.322507375700
      34   12  1  -0.84760    -13.765420421700      8.285832826540     12.312566653500
      35   12  2   0.42380    -13.821935500900      9.073802765690     12.925681178600
      36   12  2   0.42380    -13.951536207900      8.579124869990     11.374834980100
      37   13  1  -0.84760    -14.245480891500     11.908584058500      8.394756805440
      38   13  2   0.42380    -14.188258132200     12.901797885900      8.496008219790
      39   13  2   0.42380    -14.436778153600     11.681357122600      7.439888606640
      40   14  1  -0.84760      5.293461398540      1.915283101560     14.117735163800
      41   14  2   0.42380      5.016994176100      1.927792231110     15.078677095800
      42   14  2   0.42380      4.629031047080      2.426999851370     13.573053352100
      43   15  1  -0.84760     -7.416504573330    -13.289859343500     -4.946236466060
      44   15  2   0.42380     -7.040169929140    -13.998988333300     -4.349991288800
      45   15  2   0.42380     -8.302502431090    -12.991546667200     -4.591247250450
      46   16  1  -0.84760    -16.554776270000      7.352504456540     -0.654687100347
      47   16  2   0.42380    -16.447830810300      8.317215181910     -0.895302737832
      48   16  2   0.42380    -16.697335562700      7.268787615940      0.331552393213
      49   17  1  -0.84760     -0.157503983756      1.555067212350     15.360025864900
      50   17  2   0.42380     -1.131637260300      1.333508575880     15.315572179600
      51   17  2   0.42380      0.352579899415      0.936729809503     14.762135165500
      52   18  1  -0.84760     -6.118821482490      6.862934529930      1.448181026300
      53   18  2   0.42380     -6.117710610210      7.862923720050      1.443665984670
      54   18  2   0.42380     -5.233573647660      6.527180960500      1.126302459850
      55   19  1  -0.84760      6.855427458690     -1.763891398840     13.367745691000
      56   19  2   0.42380      7.193349658810     -2.701849298540     13.290005321600
      57   19  2   0.42380      5.859808385160     -1.774922461380     13.460594902600
      58   20  1  -0.84760     -1.946035815510      2.914537677180     -0.075019245374
      59   20  2   0.42380     -2.231316508830      2.099273474000     -0.578962898024
      60   20  2   0.42380     -2.178616770020      2.807249018970      0.891621972153
      61   21  1  -0.84760     -7.648338000120     12.282214336000      8.668273529950
      62   21  2   0.42380     -8.202034250680     12.811425353300      9.311201334080
      63   21  2   0.42380     -7.873118384530     12.554009715700      7.732537963480
      64   22  1  -0.84760      7.066957214920     -5.754623985620    -14.832607863700
      65   22  2   0.42380      7.435290840030     -6.608755062060    -14.465469681400
      66   22  2   0.42380      7.820713973750     -5.149916079750    -15.089860846300
      67   23  1  -0.84760    -16.299757222800     10.972249126300    -14.752147258100
      68   23  2   0.42380    -16.807549244300     10.376884759500    -14.129500862800
      69   23  2   0.42380    -16.114314540000     11.845395323800    -14.301340504400
      70   24  1  -0.84760    -12.503766040300    -13.716504412600    -16.602761439000
      71   24  2   0.42380    -13.056267601200    -14.521950800300    -16.388289665200
      72   24  2   0.42380    -12.203387700500    -13.762412699300    -17.555476129900
      73   25  1  -0.84760     13.504527426800     -8.904584776280      8.225211767420
      74   25  2   0.42380     12.652687893100     -8.531172945560      8.592544060340
      75   25  2   0.42380     14.166439163100     -8.165317940860      8.101286792700
      76   26  1  -0.84760     -6.339463600670     -5.416837660710    -12.144776677500
      77   26  2   0.42380     -6.079954089100     -6.378113432850    -12.237532827200
      78   26  2   0.42380     -6.544467688640     -5.038344852370    -13.047393161900
      79   27  1  -0.84760      9.375184489870      9.839365095650      3.759025626810
      80   27  2   0.42380      9.844162104500     10.496231025600      4.349438318990
      81   27  2   0.42380      9.233063611100     10.244983852100      2.856099782580
      82   28  1  -0.84760      7.342500574600     -0.674757436435      0.743719495227
      83   28  2   0.42380      6.956570985070     -0.464865553884     -0.154614378988
      84   28  2   0.42380      6.620177499900     -1.015643454390      1.345422161430
      85   29  1  -0.84760    -10.336312595700      7.733350013250     -4.303033026640
      86   29  2   0.42380    -10.104656472300      8.550010060590     -3.774448305370
      87   29  2   0.42380     -9.657837170010      7.600382232520     -5.025522241800
      88   30  1  -0.84760      0.453313285707     12.832196310900     -0.919026836089
      89   30  2   0.42380     -0.473629078880     12.820592736800     -0.544002557140
      90   30  2   0.42380      0.419054844449     13.090476238000     -1.884489335870
      91   31  1  -0.84760     -1.048001892660    -16.176250753500    -13.261986218500
      92   31  2   0.42380     -0.218130182587    -15.638524736900    -13.113111520000
      93   31  2   0.42380     -0.798573115331    -17.107797283100    -13.526573346300
      94   32  1  -0.84760     13.763854990200      1.988920831840      8.539838672410
      95   32  2   0.42380     14.332934180100      2.808566008970      8.605646417540
      96   32  2   0.42380     13.810844077900      1.480602184600      9.399724815160
      97   33  1  -0.84760      1.729725956800    -16.242112869800      6.845842043760
      98   33  2   0.42380      2.667559796220    -16.320063039300      6.507623976950
      99   33  2   0.42380      1.232477515970    -17.086671350800      6.647184146090
     100   34  1  -0.84760    -14.391175703400     -5.390738510240     -6.709214787270
     101   34  2   0.42380    -15.384753899700     -5.460797008220     -6.620365618850
     102   34  2   0.42380    -14.165973703300     -4.876274874180     -7.536627155010
     103   35  1  -0.84760     -5.857280689730     -8.349432201430     -9.759286755230
     104   35  2   0.42380     -5.488136517510     -8.102540111180    -10.655264922300
     105   35  2   0.42380     -5.105200215870     -8.478411935800     -9.112959292590
     106   36  1  -0.84760    -12.494921083100     10.262033677900     10.052249911500
     107   36  2   0.42380    -12.726420457800     11.056286186200      9.490492853070
     108   36  2   0.42380    -12.906925147400      9.441729429320      9.655571716080
     109   37  1  -0.84760      7.331814579110    -14.702029092200    -12.041241530300
     110   37  2   0.42380      7.483530237010    -13.941401196300    -12.672452717700
     111   37  2   0.42380      6.467450139000    -14.566066610400    -11.557104857200
     112   38  1  -0.84760     -1.350761593650      5.829538777480    -17.091149404700
     113   38  2   0.42380     -0.669142273463      5.824545122830    -16.359459466400
     114   38  2   0.42380     -2.026677595210      6.544448381150    -16.912147121400
     115   39  1  -0.84760     10.088628204500      6.881020626880     -0.566145827180
     116   39  2   0.42380      9.705297665160      7.742031827900     -0.900387370575
     117   39  2   0.42380     10.942130986600      6.686264849740     -1.049470964330
     118   40  1  -0.84760    -16.799533521400    -16.371596561700    -13.451795638200
     119   40  2   0.42380    -16.310020719600    -15.546333149600    -13.170161979600
     120   40  2   0.42380    -16.446420615200    -16.683977716200    -14.333685251300
     121   41  1  -0.84760      4.781043183940     14.120771520300    -17.020505137300
     122   41  2   0.42380      4.302380232740     13.422273558700    -16.488544258300
     123   41  2   0.42380      5.248840552050     14.750045121600    -16.399876136200
     124   42  1  -0.84760      6.106543115100     13.837251996400     16.042644349400
     125   42  2   0.42380      5.717347115050     14.272152389000     16.854671517700
     126   42  2   0.42380      5.573492612590     13.022990331900     15.812785471900
     127   43  1  -0.84760    -10.278605286900     -9.479861196160     16.397338718500
     128   43  2   0.42380    -10.698963997400     -8.578104893270     16.296670328700
     129   43  2   0.42380    -10.355937623200     -9.981710210390     15.535847408800
     130   44  1  -0.84760     14.476577492300    -14.572593020000    -12.968782348800
     131   44  2   0.42380     15.294679196600    -14.731430864700    -13.521484927700
     132   44  2   0.42380     14.204719540100    -13.613187106500    -13.043839306200
     133   45  1  -0.84760     -8.989201386960      2.185305758030    -10.717759845400
     134   45  2   0.42380     -9.229135208060      1.415941294880    -11.309798766700
     135   45  2   0.42380     -9.588835898660      2.189724629600     -9.917498059480
     136   46  1  -0.84760     -6.347679001880      1.452841960820    -11.240050479200
     137   46  2   0.42380     -6.735255389240      0.899330990199    -11.977214063000
     138   46  2   0.42380     -7.079766570970      1.753650290050    -10.628853178600
     139   47  1  -0.84760      3.347398439950      6.785239384760     10.863338944400
     140   47  2   0.42380      4.010641086550      6.054621812120     10.701144140900
     141   47  2   0.42380      2.745263759860      6.527116478200     11.618856245400
     142   48  1  -0.84760     -4.746546565200      9.673810206760      4.981018428080
     143   48  2   0.42380     -5.062481309070      9.819465795350      5.918552260600
     144   48  2   0.42380     -4.575049517100     10.557730679400      4.545962844840
     145   49  1  -0.84760      7.718930574010    -10.674453387700      9.645406323000
     146   49  2   0.42380      8.542868723410    -10.222778396400      9.987627929840
     147   49  2   0.42380      6.917764612910    -10.311355575200     10.121109046700
     148   50  1  -0.84760     10.173126051400     -8.405247341630    -14.941692868500
     149   50  2   0.42380     10.099565502100     -8.563418383750    -13.957025022500
     150   50  2   0.42380      9.264409664490     -8.455201824110    -15.356107006600
     151   51  1  -0.84760     -5.632545035280      1.353743987410    -16.078992414800
     152   51  2   0.42380     -6.048006742610      1.672152573630    -16.931053176700
     153   51  2   0.42380     -5.737001253940      2.055762654900    -15.374536107500
     154   52  1  -0.84760    -12.979701599700      3.912178579960     -6.898702558310
     155   52  2   0.42380    -12.396786165200      4.646969676950     -6.551871706090
     156   52  2   0.42380    -13.494868716200      3.509995967120     -6.141832696330
     157   53  1  -0.84760      9.975348508080     11.632133054400    -17.542963794600
     158   53  2   0.42380      9.366944362530     11.712399959200    -18.332521658036
     159   53  2   0.42380      9.779006338940     10.781042386300    -17.056040364000
     160   54  1  -0.84760      7.278972132820     -4.389724949380     -3.455703745650
     161   54  2   0.42380      6.431694740960     -4.552661749600     -2.950161838030
     162   54  2   0.42380      8.021290151210     -4.915530071260     -3.040381059800
     163   55  1  -0.84760     -7.691074485250     -4.794639998100      6.561160641900
     164   55  2   0.42380     -8.572384630080     -5.242412458600      6.712131673000
     165   55  2   0.42380     -7.153477703730     -5.328435741470      5.908434202380
     166   56  1  -0.84760     -7.627816568600     -2.648093426480      0.229347854088
     167   56  2   0.42380     -8.365648248430     -3.297652006790      0.045832015567
     168   56  2   0.42380     -7.596294925430     -1.964697121190     -0.500018909569
     169   57  1  -0.84760     -8.250751093870     -6.649579718320     14.445918047000
     170   57  2   0.42380     -8.962994638500     -6.367417865640     15.088641799500
     171   57  2   0.42380     -7.877525971130     -5.843316109750     13.986960531200
     172   58  1  -0.84760      2.975395143830      9.834559511680     11.268260898500
     173   58  2   0.42380      2.325491760100      9.569546058430     11.980576461600
     174   58  2   0.42380      3.680010188010      9.130330294780     11.181204310100
     175   59  1  -0.84760     -7.112644236620      4.187507717080     16.762957410800
     176   59  2   0.42380     -6.388619795390      4.524116980720     16.160891955800
     177   59  2   0.42380     -6.781079751030      4.171318252320     17.706251051800
     178   60  1  -0.84760    -11.056006133100      0.173622096670     -2.111173770640
     179   60  2   0.42380    -11.614210550200      0.623695104074     -1.414150014370
     180   60  2   0.42380    -10.929636413100      0.791563476899     -2.887175796720
     181   61  1  -0.84760     -1.820294270380     12.320924248900      7.761975880480
     182   61  2   0.42380     -1.198113282800     13.020893461300      8.112595218810
     183   61  2   0.42380     -1.492440554760     11.416528277700      8.035069030280
     184   62  1  -0.84760     -9.666435512770    -16.721195332100     -0.924165547813
     185   62  2   0.42380     -9.941170102830    -15.820270639900     -0.588225666429
     186   62  2   0.42380     -9.856677895940    -17.410017538700     -0.224642993952
     187   63  1  -0.84760    -10.025009287300    -17.082699992100      3.389624404320
     188   63  2   0.42380     -9.289802394690    -17.749147370700      3.513393207160
     189   63  2   0.42380     -9.632651664610    -16.168397926400      3.289089690770
     190   64  1  -0.84760     -7.732029516940     12.025479737800    -15.405099930300
     191   64  2   0.42380     -8.723136015900     12.043420645500    -15.536956031900
     192   64  2   0.42380     -7.457890250680     12.798259604100    -14.832684922600
     193   65  1  -0.84760    -10.825717156300     10.441581142100    -14.468408899800
     194   65  2   0.42380    -11.135594087800      9.622715311730    -14.951560055500
     195   65  2   0.42380    -10.370043014400     10.175070580200    -13.619095531900
     196   66  1  -0.84760    -10.105852359000     -4.656732122580    -11.304985605900
     197   66  2   0.42380     -9.355912507300     -5.318153274710    -11.294389455500
     198   66  2   0.42380     -9.761530911130     -3.758042703330    -11.033323926100
     199   67  1  -0.84760     -0.389539831404     16.873347554900     14.419311316900
     200   67  2   0.42380     -1.261228969310     16.944046058800     13.934378570600
     201   67  2   0.42380     -0.326721861188     17.603106413100     15.100124001400
     202   68  1  -0.84760    -10.686697002100     -3.098825123520     11.562406351000
     203   68  2   0.42380     -9.785936018790     -2.671539706180     11.640231945200
     204   68  2   0.42380    -11.258892672600     -2.560033299090     10.944105870200
     205   69  1  -0.84760     -1.167441391200    -12.350780595600      2.906354104730
     206   69  2   0.42380     -1.659677004000    -12.880650657200      3.596963849310
     207   69  2   0.42380     -1.676765083990    -11.514795325200      2.702104248740
     208   70  1  -0.84760     14.350547009900    -11.301624615900      4.549230679150
     209   70  2   0.42380     13.937268061500    -11.858336987800      5.269835873230
     210   70  2   0.42380     14.109723964700    -10.341379572300      4.690417495790
     211   71  1  -0.84760      7.636792878370     -0.758941527281     16.315957838500
     212   71  2   0.42380      7.222863178510     -1.668411074040     16.276876550200
     213   71  2   0.42380      7.609522294750     -0.420455846304     17.256534129400
     214   72  1  -0.84760      0.143247861537     -8.040453348780      6.978285958010
     215   72  2   0.42380      0.972826856952     -8.385229591870      6.539050221120
     216   72  2   0.42380     -0.445671052710     -7.615179114120      6.291033211360
     217   73  1  -0.84760     15.784759488000      4.457130513150    -14.342614896100
     218   73  2   0.42380     16.377489624700      4.048346709500    -15.036565028900
     219   73  2   0.42380     16.097589049600      5.385506937180    -14.141978706300
     220   74  1  -0.84760      0.015199710580     -6.811419222260    -13.894853072300
     221   74  2   0.42380      0.057773799686     -6.881278449140    -14.891501021800
     222   74  2   0.42380      0.306118911818     -5.897421047710    -13.612057465400
     223   75  1  -0.84760     10.682781219200     -7.903374914860      2.651371788760
     224   75  2   0.42380     10.148385876700     -7.058486213430      2.627191215980
     225   75  2   0.42380     10.243278086800     -8.592361758370      2.075060999240
     226   76  1  -0.84760     -2.204774248030      4.264255074090     -9.808765547620
     227   76  2   0.42380     -2.276146182170      3.445065665340    -10.377830359100
     228   76  2   0.42380     -1.478170296700      4.138604487640     -9.133296356580
     229   77  1  -0.84760     10.702246342600      4.165290032700    -16.606766206100
     230   77  2   0.42380     10.195448317400      4.609304280390    -15.867843267400
     231   77  2   0.42380     10.567129711300      3.175765913860    -16.555918254700
     232   78  1  -0.84760     -1.361537678620    -15.158588037500     -7.703166064510
     233   78  2   0.42380     -1.525104597920    -14.180728991200     -7.572638103490
     234   78  2   0.42380     -1.723132192870    -15.441342297600     -8.591591320590
     235   79  1  -0.84760    -15.368889306200    -11.471327654600     15.703538452300
     236   79  2   0.42380    -15.448922536600    -12.358784099600     16.157428020700
     237   79  2   0.42380    -14.582033975600    -11.482290891400     15.086498343300
     238   80  1  -0.84760      4.596172886140     -6.379564338320     -4.586308377430
     239   80  2   0.42380      3.774016462610     -5.964136348990     -4.975510639660
     240   80  2   0.42380      4.589972842720     -6.263635921620     -3.593070157430
     241   81  1  -0.84760     15.742531162300      5.383250678800     11.618129671400
     242   81  2   0.42380     16.160478515500      6.263072990990     11.844476107100
     243   81  2   0.42380     14.863172470500      5.537986436050     11.167812964400
     244   82  1  -0.84760     14.727256725400    -17.200898342000     17.284195980300
     245   82  2   0.42380     15.662914333500    -17.346943019900     16.962923833000
     246   82  2   0.42380     14.102071250800    -17.784848833700     16.766368841600
     247   83  1  -0.84760     10.785023564700     -6.280113871260     -5.673727870160
     248   83  2   0.42380      9.833587790720     -6.581887634920     -5.734576564710
     249   83  2   0.42380     10.812524257400     -5.314223629890     -5.416240485000
     250   84  1  -0.84760    -11.900492839600      7.152987621540      3.868953011300
     251   84  2   0.42380    -10.957826120400      7.118694964590      3.536983931060
     252   84  2   0.42380    -12.111112203400      8.080032489370      4.179158260470
     253   85  1  -0.84760      7.331557937500     11.665276118300     -1.806228579420
     254   85  2   0.42380      6.769156730940     10.911849537600     -2.146894501310
     255   85  2   0.42380      8.261957707570     11.573641735900     -2.161136184030
     256   86  1  -0.84760     15.604500784800    -10.517000275100      2.247019809450
     257   86  2   0.42380     15.076986313900    -11.221418226700      2.721913305320
     258   86  2   0.42380     16.406397109600    -10.275824042300      2.793642448030
     259   87  1  -0.84760      5.271254502040     11.537605629200     -5.244309135800
     260   87  2   0.42380      6.012994603470     10.867467581100     -5.271449851010
     261   87  2   0.42380      5.623044773520     12.435131596100     -5.510186445300
     262   88  1  -0.84760      5.731994098470      8.574715549240      9.429775867990
     263   88  2   0.42380      5.373489941190      9.170570969700      8.711144469350
     264   88  2   0.42380      5.699012385050      7.623926700250      9.121696704090
     265   89  1  -0.84760     -3.360986412180     15.790634163500    -10.488761419400
     266   89  2   0.42380     -2.478729389150     15.773936757000    -10.018289590400
     267   89  2   0.42380     -4.069492298430     16.105924550000     -9.857404641260
     268   90  1  -0.84760     -0.365084747399      3.751059536860     -7.722550986620
     269   90  2   0.42380     -0.148700182519      4.312737805280     -6.923992759020
     270   90  2   0.42380      0.279067946225      2.988167693440     -7.777898457550
     271   91  1  -0.84760     16.449430785400     14.174966000200     15.514138386000
     272   91  2   0.42380     16.468942222100     15.075801235100     15.947860858800
     273   91  2   0.42380     17.247455190200     13.647424368500     15.805440422100
     274   92  1  -0.84760    -15.315799884300     16.101850182100     -3.361080528050
     275   92  2   0.42380    -16.091260693700     15.749199977900     -2.837345512450
     276   92  2   0.42380    -15.596091793900     16.256341891400     -4.308481582070
     277   93  1  -0.84760     -6.952437453010     -9.031758331090    -16.690059319100
     278   93  2   0.42380     -6.382725376140     -8.369409533820    -17.176600396800
     279   93  2   0.42380     -6.637764632400     -9.110819449250    -15.744157445000
     280   94  1  -0.84760     -7.298377694020     -9.138746159060      4.315979455090
     281   94  2   0.42380     -7.424615217350     -9.707213275850      5.128942692170
     282   94  2   0.42380     -7.252671216500     -8.176882981810      4.585664727530
     283   95  1  -0.84760    -15.115500975400      0.047658252362     -2.712680147850
     284   95  2   0.42380    -15.858286305900      0.454685298730     -2.181079793880
     285   95  2   0.42380    -14.317627216900     -0.083622093406     -2.124324017370
     286   96  1  -0.84760    -15.409334708500     -6.685567440840      6.397343127540
     287   96  2   0.42380    -15.841839354200     -6.993803474960      5.550035462830
     288   96  2   0.42380    -14.927919106500     -5.824837159620      6.231866841880
     289   97  1  -0.84760     -2.892631175480    -11.719595031500     -0.126746847524
     290   97  2   0.42380     -3.124131247520    -11.994001909400      0.806585130930
     291   97  2   0.42380     -2.577319767670    -12.517626732200     -0.640287615935
     292   98  1  -0.84760    -16.577291231900    -10.669157314900      8.333297296710
     293   98  2   0.42380    -17.473023444700    -10.547735198700      7.905605266510
     294   98  2   0.42380    -15.937144905200    -11.047343702400      7.664576325950
     295   99  1  -0.84760     -0.206873856347     13.540666290900      5.946502927950
     296   99  2   0.42380     -0.899039127124     14.120295426800      5.516459554800
     297   99  2   0.42380     -0.640574809098     12.714421838900      6.305979754950
     298  100  1  -0.84760    -12.386812273400     12.597823881500    -10.366148084900
     299  100  2   0.42380    -11.579569267700     12.997191873300    -10.800732871600
     300  100  2   0.42380    -12.236813443400     11.620148575900    -10.219004115700
     301  101  1  -0.84760     13.811335356100    -15.724159249300     -8.190175067440
     302  101  2   0.42380     13.193740694700    -14.962048320700     -8.384504084070
     303  101  2   0.42380     14.114732516300    -15.673030705100     -7.238683588140
     304  102  1  -0.84760     13.251701424200      6.493177797060    -16.078106297400
     305  102  2   0.42380     13.873076307400      7.183609545770    -15.707704819300
     306  102  2   0.42380     12.650053006200      6.161950880720    -15.351258369000
     307  103  1  -0.84760     17.311313719000     -7.554344724640     11.819477410900
     308  103  2   0.42380     18.083913840536     -8.188693180460     11.845765979100
     309  103  2   0.42380     16.463039443000     -8.054887934390     11.992356698000
     310  104  1  -0.84760     15.492468998700     13.577703715900      7.999048531370
     311  104  2   0.42380     16.313482014000     13.011994220400      7.922169434450
     312  104  2   0.42380     15.691181397800     14.378506634500      8.564051246380
     313  105  1  -0.84760     -3.323435132430    -17.327344111500    -16.419694725700
     314  105  2   0.42380     -2.650985891980    -17.934609315936    -16.842827081400
     315  105  2   0.42380     -3.420637021900    -16.500307869900    -16.973375904500
     316  106  1  -0.84760     -0.988465452302      8.938015444730     -7.503407332470
     317  106  2   0.42380     -1.717697810080      9.223305574780     -8.125363689510
     318  106  2   0.42380     -0.100669080663      9.099088484870     -7.934537334030
     319  107  1  -0.84760     12.973674441900     16.511584515200    -13.236646728400
     320  107  2   0.42380     13.539064380200     15.720842003600    -13.471296462900
     321  107  2   0.42380     12.861366970700     17.092115314500    -14.043102569100
     322  108  1  -0.84760      8.501831914180     17.770277692600    -16.287141453000
     323  108  2   0.42380      7.779269303180     18.378369061036    -16.615969920100
     324  108  2   0.42380      8.940946218150     17.322678153600    -17.066136498400
     325  109  1  -0.84760    -16.362776959300     10.061033906800     -2.445153308800
     326  109  2   0.42380    -16.097985926800      9.418843234700     -3.164511946580
     327  109  2   0.42380    -17.359287681100     10.077521336200     -2.363333103630
     328  110  1  -0.84760     -2.479029209480     14.939919215900     -3.592223784930
     329  110  2   0.42380     -2.807844067040     15.629673816000     -4.237296944420
     330  110  2   0.42380     -2.585086465260     15.279995027300     -2.657825421810
     331  111  1  -0.84760    -17.249090391600     15.254636628700      6.902722072440
     332  111  2   0.42380    -17.065299587500     16.235815898500      6.961951971860
     333  111  2   0.42380    -18.231663891536     15.093399389100      6.995198392900
     334  112  1  -0.84760      0.144738160737     -0.778400965734      7.345023530520
     335  112  2   0.42380      0.165666029913     -1.775451164210      7.418867460650
     336  112  2   0.42380     -0.792788168453     -0.476599570574      7.171933091860
     337  113  1  -0.84760      1.690169454720    -10.714633236000      1.194431378750
     338  113  2   0.42380      1.128935708390    -11.531570380900      1.327210831710
     339  113  2   0.42380      2.052573955450    -10.412307343600      2.076056033940
     340  114  1  -0.84760     -9.277267380100     -5.743839853850     -9.129972666230