LAMMPS Atom File

         4500 atoms
         3000 bonds
         1500 angles
           0 dihedrals
           0 impropers

           2 atom types
           1 bond types
           1 angle types

         0.0  76.5585833577 xlo xhi
         0.0  76.5585833577 ylo yhi
         0.0  76.5585833577 zlo zhi

Masses

         1   15.9994
         2   1.00794

Atoms

       1    1  1  -0.84760    -27.668456641100      9.200522017360    -30.047472883700
       2    1  2   0.42380    -27.400215402700      9.759719471000    -30.831912075700
       3    1  2   0.42380    -28.211207382200      8.422160068470    -30.363026856300
       4    2  1  -0.84760    -32.098981042300    -23.534132688600    -19.560192075300
       5    2  2   0.42380    -32.973385394100    -23.986755116300    -19.385406585400
       6    2  2   0.42380    -31.712975725900    -23.209928610900    -18.696541907900
       7    3  1  -0.84760    -14.953038135300     28.344898435000    -11.028448077300
       8    3  2   0.42380    -14.194800084300     28.988186659100    -10.922356990300
       9    3  2   0.42380    -15.371369050600     28.468249675100    -11.928327912000
      10    4  1  -0.84760     34.256461531100    -22.552270559800     11.033076614600
      11    4  2   0.42380     35.209357715800    -22.416032530600     11.304052739900
      12    4  2   0.42380     33.726540456500    -21.733776349300     11.255002012500
      13    5  1  -0.84760      2.336662499030     20.531277610900    -17.742880085500
      14    5  2   0.42380      2.896552853720     19.767480558400    -17.421730816000
      15    5  2   0.42380      1.694885948440     20.205343443700    -18.437062898500
      16    6  1  -0.84760    -11.633131304200    -26.823772468400     13.157640699100
      17    6  2   0.42380    -11.579278511600    -26.186670844400     13.926536919300
      18    6  2   0.42380    -12.544462752000    -26.776379588800     12.748704387100
      19    7  1  -0.84760    -30.432836860800     -7.831415184430     33.924654861600
      20    7  2   0.42380    -30.503769860200     -6.851811435780     34.112657535100
      21    7  2   0.42380    -31.107443800600     -8.325731374070     34.472885635500
      22    8  1  -0.84760     36.044995193500     35.118771587100    -31.081731610900
      23    8  2   0.42380     36.424064613000     34.415229186800    -30.480620584400
      24    8  2   0.42380     35.741320500300     35.897705935700    -30.533057790500
      25    9  1  -0.84760    -24.528569927500      4.075878749490     31.186529985800
      26    9  2   0.42380    -24.943854964800      3.739947133130     32.031922372200
      27    9  2   0.42380    -24.911548223900      3.580066994660     30.407108194900
      28   10  1  -0.84760    -16.364731473700    -33.595365339500      0.650899650627
      29   10  2   0.42380    -16.389724940900    -34.592476115200      0.722631287382
      30   10  2   0.42380    -17.291741897200    -33.231355912500      0.741170418708
      31   11  1  -0.84760     -0.351879068354     15.315057348600     19.979896593500
      32   11  2   0.42380     -0.815279073026     14.541846991300     20.412800946700
      33   11  2   0.42380     -0.507143887517     15.286332083600     18.992441432400
      34   12  1  -0.84760    -24.367031819600     19.097058674000     27.921666267600
      35   12  2   0.42380    -24.624042443500     20.053799737200     27.785313499600
      36   12  2   0.42380    -25.096459293600     18.504114116000     27.580561721700
      37   13  1  -0.84760    -30.111958004000     28.120739715400     18.027810117300
      38   13  2   0.42380    -30.610301379500     28.616649539900     18.738955198200
      39   13  2   0.42380    -29.356113422200     27.613850311000     18.442252031100
      40   14  1  -0.84760     18.832215249200      3.801656534970     33.854915275800
      41   14  2   0.42380     18.167906829800      3.570791087970     33.144003558900
      42   14  2   0.42380     19.522271710300      3.080253347080     33.913220687100
      43   15  1  -0.84760    -16.563539490200    -31.065208083100     -8.019142831380
      44   15  2   0.42380    -17.232135740800    -31.119802648800     -8.760761660150
      45   15  2   0.42380    -15.664258270200    -30.844412979500     -8.396691251460
      46   16  1  -0.84760    -37.409151670600     16.373109404900     -3.387313564650
      47   16  2   0.42380    -38.328368657223     16.737606400100     -3.238377094870
      48   16  2   0.42380    -37.216689298100     16.344831381400     -4.368210393350
      49   17  1  -0.84760      3.022295274910      3.002222086060     27.927820518800
      50   17  2   0.42380      2.581526248930      3.685096388290     28.510405579600
      51   17  2   0.42380      2.397890232480      2.234670570090     27.782965372800
      52   18  1  -0.84760    -21.872867494300      9.114906219090     12.773689204700
      53   18  2   0.42380    -22.809390105800      9.022614119970     12.435447328900
      54   18  2   0.42380    -21.332563278300      8.327063856850     12.478095283300
      55   19  1  -0.84760     18.615283297400     -5.707833610540     29.739097959800
      56   19  2   0.42380     17.867124090900     -5.837506009950     30.389822840700
      57   19  2   0.42380     18.239521262800     -5.492055815490     28.837852800800
      58   20  1  -0.84760     -4.594444854770      2.024905987830     -7.608862171730
      59   20  2   0.42380     -5.210792395680      2.444439811090     -6.942448576480
      60   20  2   0.42380     -3.730343372470      1.791531143050     -7.162919563190
      61   21  1  -0.84760    -18.130400286300     34.555012043700     22.531688501900
      62   21  2   0.42380    -17.661489695500     34.821195623600     23.373869693600
      63   21  2   0.42380    -18.769326104300     35.276108004400     22.263743704200
      64   22  1  -0.84760     13.970883673700    -15.380435290000    -36.012924950400
      65   22  2   0.42380     13.493059552600    -14.521029226400    -35.830976257000
      66   22  2   0.42380     13.369254485600    -16.148913025600    -35.795016047500
      67   23  1  -0.84760    -33.918096641600     21.394952118700    -28.138917113700
      68   23  2   0.42380    -34.397082236600     20.607535593100    -28.526922287600
      69   23  2   0.42380    -33.162700157700     21.076540061100    -27.566213076900
      70   24  1  -0.84760    -25.853950911400    -28.905346671600    -37.686032995400
      71   24  2   0.42380    -26.529293477800    -28.919273291400    -36.948660316600
      72   24  2   0.42380    -26.157922564400    -28.279892987100    -38.404648972623
      73   25  1  -0.84760     28.179317066100    -18.703040945600     16.400641572900
      74   25  2   0.42380     27.751534841500    -19.392129272100     16.985585712600
      75   25  2   0.42380     28.621808246500    -18.010457262000     16.970316389300
      76   26  1  -0.84760    -11.838765655000     -9.776954252050    -23.572874218800
      77   26  2   0.42380    -12.734496048200     -9.523844565450    -23.938391043600
      78   26  2   0.42380    -11.618547357600    -10.712632861000    -23.848572318500
      79   27  1  -0.84760     19.244986385600     18.258362400400      4.319413407700
      80   27  2   0.42380     18.890502753800     19.117453597800      4.688606675880
      81   27  2   0.42380     20.212798644500     18.367235883200      4.092508149280
      82   28  1  -0.84760     15.173791819900     -1.435106011210     -0.939458636574
      83   28  2   0.42380     15.828322642100     -2.180138786670     -1.067971539910
      84   28  2   0.42380     14.418007038900     -1.540214861770     -1.585787882560
      85   29  1  -0.84760    -15.527003335700     17.267680836000     -8.814787445740
      86   29  2   0.42380    -16.247236358900     17.668990242900     -9.380663008210
      87   29  2   0.42380    -15.119672407200     16.490897297400     -9.295088235760
      88   30  1  -0.84760     -0.349672733155     28.838599404900     -4.561446186700
      89   30  2   0.42380     -0.347717913747     27.846131720000     -4.438955072250
      90   30  2   0.42380      0.591170135744     29.165119859400     -4.651995006720
      91   31  1  -0.84760     -2.320945591410    -33.477420727100    -27.729396814100
      92   31  2   0.42380     -1.657078529110    -32.953324095500    -27.195914626700
      93   31  2   0.42380     -2.001831605850    -34.420302914700    -27.824997256700
      94   32  1  -0.84760     27.596369353100      5.350642294380     16.285754529600
      95   32  2   0.42380     28.448953499900      5.677467963800     16.693535419900
      96   32  2   0.42380     26.857211872300      5.423594976760     16.955324634000
      97   33  1  -0.84760      6.661832090370    -37.492908953800     12.185732416400
      98   33  2   0.42380      6.913347347570    -37.987975585500     11.354077977600
      99   33  2   0.42380      5.952042663500    -36.821622510200     11.972252955600
     100   34  1  -0.84760    -30.540998069000    -18.598262939400    -17.319955712000
     101   34  2   0.42380    -30.810079695000    -18.539765653700    -18.281294958100
     102   34  2   0.42380    -30.544380901400    -17.683221024200    -16.916611132500
     103   35  1  -0.84760    -13.003208557400    -21.313095640600    -16.153629252500
     104   35  2   0.42380    -13.125401445900    -22.172944215000    -15.657918321500
     105   35  2   0.42380    -12.564494207600    -20.642765622400    -15.555141670300
     106   36  1  -0.84760    -24.553311718200     21.588024695700     18.231654558300
     107   36  2   0.42380    -24.926995916800     21.252097016800     17.367066382200
     108   36  2   0.42380    -23.632485541300     21.220475668600     18.361988225000
     109   37  1  -0.84760     16.398305844800    -30.324593271700    -27.138830284300
     110   37  2   0.42380     16.220390250700    -31.306234156800    -27.207585021600
     111   37  2   0.42380     16.703019441800    -29.978133757700    -28.026025544000
     112   38  1  -0.84760     -1.030832047340     16.065838379600     36.404003381600
     113   38  2   0.42380     -1.632899227130     15.305688959400     36.648314597000
     114   38  2   0.42380     -0.486996849003     16.329628016100     37.200657826600
     115   39  1  -0.84760     16.323541029400      8.365724295730     -2.778070490320
     116   39  2   0.42380     15.997940844500      8.062428603020     -3.673612919440
     117   39  2   0.42380     17.301958573900      8.175565032690     -2.697209107090
     118   40  1  -0.84760     35.984848719900     36.030050580900    -27.436949653300
     119   40  2   0.42380     35.170657594700     36.544945006400    -27.168665210500
     120   40  2   0.42380     36.621286364700     35.987797284700    -26.666779683000
     121   41  1  -0.84760     10.846298230700     28.614941664200    -35.437715849600
     122   41  2   0.42380     11.292644401000     29.307152576300    -34.870601091000
     123   41  2   0.42380     10.556432054000     27.849564944600    -34.863106350400
     124   42  1  -0.84760     14.356904789700     28.186425689700     35.749162788800
     125   42  2   0.42380     15.218249515200     28.646925697700     35.963697183300
     126   42  2   0.42380     13.889361339100     27.941450071300     36.598509636700
     127   43  1  -0.84760    -21.836071289800    -25.874371431300     30.122577635200
     128   43  2   0.42380    -22.375798333600    -25.204551700900     29.612640142000
     129   43  2   0.42380    -22.303584284500    -26.097509793800     30.977937717800
     130   44  1  -0.84760     29.066701214100    -27.539596423200    -27.344978664500
     131   44  2   0.42380     29.100698070500    -28.080266566100    -26.504431217600
     132   44  2   0.42380     28.194778292600    -27.052294701300    -27.392805967600
     133   45  1  -0.84760    -22.365964306000      2.796524728330    -18.828505266500
     134   45  2   0.42380    -21.537822891500      2.823513310550    -18.268636162200
     135   45  2   0.42380    -22.446831858200      3.648797805240    -19.345313781700
     136   46  1  -0.84760    -11.646842408300      2.103210284050    -22.516774320500
     137   46  2   0.42380    -12.298672364300      2.732412283070    -22.940121167500
     138   46  2   0.42380    -12.034448006800      1.742784527990    -21.668331526700
     139   47  1  -0.84760      9.394745351010     19.898248666600     25.481888547600
     140   47  2   0.42380      9.527190043630     19.551489346200     26.410444618600
     141   47  2   0.42380      8.891284600380     19.223165867300     24.942638618000
     142   48  1  -0.84760     -1.362568505990     25.954122860300      9.767577093570
     143   48  2   0.42380     -0.632169721773     25.803964249300      9.101266349570
     144   48  2   0.42380     -1.475781083940     25.134048035000     10.328522895900
     145   49  1  -0.84760     16.943316461600    -25.051529521800     21.514979982000
     146   49  2   0.42380     17.647686002800    -25.393927267700     20.893186340200
     147   49  2   0.42380     16.942069563800    -25.599592733100     22.351415969800
     148   50  1  -0.84760     22.724926255800    -24.555953855300    -34.506775201500
     149   50  2   0.42380     23.119534925700    -24.343657866900    -35.400763127000
     150   50  2   0.42380     22.292483187900    -23.736667323300    -34.130261494500
     151   51  1  -0.84760     -6.132317860110      5.152639981300    -34.054239682100
     152   51  2   0.42380     -6.111665084060      5.260310929860    -35.048211728800
     153   51  2   0.42380     -6.878282685570      4.536625443260    -33.801133838400
     154   52  1  -0.84760    -23.965915064300      9.635341146210    -11.622933701200
     155   52  2   0.42380    -23.778099394400      9.584358555430    -12.603813943500
     156   52  2   0.42380    -23.129904236200      9.888701218800    -11.136215539600
     157   53  1  -0.84760     21.899682494400     31.453840806500     29.745476507300
     158   53  2   0.42380     21.152656905500     30.789684707400     29.774621757700
     159   53  2   0.42380     21.671612831400     32.237578810500     30.323177961200
     160   54  1  -0.84760     18.890625034100     -3.553197830330     -4.726792662470
     161   54  2   0.42380     18.774164453000     -4.362162517380     -4.150586910880
     162   54  2   0.42380     18.842636971400     -2.730645764040     -4.160131172630
     163   55  1  -0.84760    -19.124035950100    -16.441778946200      7.282241066050
     164   55  2   0.42380    -20.031048180500    -16.442104374700      7.703345219500
     165   55  2   0.42380    -19.070023347800    -17.176925546400      6.606488067570
     166   56  1  -0.84760    -13.518375678600    -10.814618827700     -0.997935229995
     167   56  2   0.42380    -14.221470379800    -11.488417215200     -1.225209457140
     168   56  2   0.42380    -13.630573299000    -10.523312016300     -0.047907843242
     169   57  1  -0.84760     35.030390245000     -9.858271662460    -14.906303111900
     170   57  2   0.42380     34.911007351500     -9.628883629390    -13.940317162200
     171   57  2   0.42380     35.785180461000     -9.322817079450    -15.285222786000
     172   58  1  -0.84760    -15.480835855200    -11.836221964200     35.826487763700
     173   58  2   0.42380    -15.750166124700    -11.438146664000     34.949562874500
     174   58  2   0.42380    -15.204940851600    -12.787661839200     35.689944322600
     175   59  1  -0.84760      7.392757071550     18.533956499800     19.392598962400
     176   59  2   0.42380      8.266528065990     18.355939648000     18.940012783000
     177   59  2   0.42380      7.068741417200     19.446878283800     19.144430326200
     178   60  1  -0.84760    -15.992598982800     14.450150649400     31.402506591100
     179   60  2   0.42380    -16.648454811700     13.910649474900     30.874499380700
     180   60  2   0.42380    -16.478416598400     14.973184247200     32.102804456300
     181   61  1  -0.84760    -27.741566791400     -2.753308423040     -2.606808219020
     182   61  2   0.42380    -27.981921387200     -3.249883597740     -1.772756203770
     183   61  2   0.42380    -26.747253423300     -2.666162001850     -2.668016284740
     184   62  1  -0.84760     -2.565930119950     32.318906049000     27.020658876500
     185   62  2   0.42380     -2.848688800010     32.830410406200     27.832084055700
     186   62  2   0.42380     -2.423078380000     31.359635474300     27.264366375000
     187   63  1  -0.84760    -17.509381040200    -34.988026007300     -5.991962975300
     188   63  2   0.42380    -18.426264957300    -34.595266667600     -5.920801302530
     189   63  2   0.42380    -16.834884697000    -34.318417011200     -5.681031350490
     190   64  1  -0.84760    -20.246717368000    -37.922618871100      8.898545651300
     191   64  2   0.42380    -20.860995006400    -37.273598892500      8.449729374490
     192   64  2   0.42380    -19.389157476200    -37.978160436200      8.387168914910
     193   65  1  -0.84760    -15.894194168700     30.272778680200    -31.848454066000
     194   65  2   0.42380    -16.372551548700     29.439825002500    -32.126595015700
     195   65  2   0.42380    -16.260862111500     30.591665561700    -30.974459914700
     196   66  1  -0.84760    -19.384109035200     14.526576514200    -31.072436055500
     197   66  2   0.42380    -19.624894079400     13.605757526300    -31.379217662000
     198   66  2   0.42380    -19.544262142600     15.177619887200    -31.814388553000
     199   67  1  -0.84760    -16.711178533400     -6.794892533970    -21.402800686900
     200   67  2   0.42380    -16.882085355300     -6.718458378800    -22.385118699600
     201   67  2   0.42380    -17.251667819500     -7.548181694420    -21.028065083600
     202   68  1  -0.84760     -0.253421973931    -36.769915480500     30.290492282700
     203   68  2   0.42380     -1.128720097840    -36.502273578100     30.693258972400
     204   68  2   0.42380      0.356951974148    -37.101603767600     31.009815939900
     205   69  1  -0.84760    -33.988771742000    -34.392521647900     21.614024011700
     206   69  2   0.42380    -34.086266697100    -34.129889406000     20.654066179700
     207   69  2   0.42380    -34.848686153800    -34.222144350200     22.095187997100
     208   70  1  -0.84760    -22.724590224900     -5.244193609800     19.985669234600
     209   70  2   0.42380    -22.613757994800     -4.792372043200     20.870866099000
     210   70  2   0.42380    -23.231317039100     -4.644392011980     19.366422935400
     211   71  1  -0.84760     -5.207789260310    -30.453546435800      8.845879989270
     212   71  2   0.42380     -5.084262331940    -29.916146938000      9.680111898090
     213   71  2   0.42380     -4.403993015870    -31.029936003900      8.698616065500
     214   72  1  -0.84760     28.399713438100    -26.420785104400      5.768241243210
     215   72  2   0.42380     28.958160396300    -26.607767646200      6.576433376300
     216   72  2   0.42380     27.554484140700    -26.952984315700      5.816732832820
     217   73  1  -0.84760     23.306406340200      1.369020531500     33.588046385500
     218   73  2   0.42380     22.963240248200      2.249775568060     33.914401405200
     219   73  2   0.42380     24.133523916000      1.125209242910     34.094438102700
     220   74  1  -0.84760     -1.957976584990    -11.503268257900     11.245838256000
     221   74  2   0.42380     -1.923758349200    -11.609110171100     12.239632299900
     222   74  2   0.42380     -2.732186615430    -10.920380004600     10.999180369700
     223   75  1  -0.84760     31.386288249600     11.264196572000    -29.799159803400
     224   75  2   0.42380     31.889349720500     12.044162869700    -30.171425476000
     225   75  2   0.42380     31.609146604100     11.155493941800    -28.830388472300
     226   76  1  -0.84760     -1.999103740650    -18.138772989600    -26.868836392300
     227   76  2   0.42380     -1.157667835430    -17.609919539600    -26.979740160900
     228   76  2   0.42380     -2.788627787680    -17.546835887700    -27.030892699100
     229   77  1  -0.84760     21.501520744100    -21.699833799900      8.608901834440
     230   77  2   0.42380     22.079553138600    -21.228745237900      7.942603014360
     231   77  2   0.42380     22.068027401000    -22.042499277000      9.358335339440
     232   78  1  -0.84760     -3.611739882830     12.625132208100    -21.371778483700
     233   78  2   0.42380     -3.563240659990     12.104762028000    -20.519216051300
     234   78  2   0.42380     -3.415938628400     13.588045983500    -21.186147317600
     235   79  1  -0.84760     23.285627249700      9.996385560850    -35.628835055600
     236   79  2   0.42380     23.050767301700     10.893250859600    -35.254037189000
     237   79  2   0.42380     24.193189538200     10.037061505600    -36.046777826800
     238   80  1  -0.84760      2.269947248140    -29.426060069400    -11.969092907800
     239   80  2   0.42380      2.299083228490    -28.509915552200    -12.368880749400
     240   80  2   0.42380      1.840155429790    -29.382648421200    -11.067209089500
     241   81  1  -0.84760    -37.467636843700    -20.400494475300     32.960776508900
     242   81  2   0.42380    -38.426364892823    -20.277655863500     33.217196483200
     243   81  2   0.42380    -36.885708253500    -19.884892106700     33.589675001000
     244   82  1  -0.84760     12.306404354100    -11.626824917700    -12.453281133000
     245   82  2   0.42380     11.531422671600    -12.068135555800    -12.905661849400
     246   82  2   0.42380     12.265461059200    -11.807066613200    -11.470511283100
     247   83  1  -0.84760     29.635952229400     10.623254695900     30.851278538800
     248   83  2   0.42380     28.971334297300     10.288553878300     30.183252815400
     249   83  2   0.42380     29.186031389300     10.747345215100     31.735683864800
     250   84  1  -0.84760     31.675942717800    -36.996344990400     37.175504712200
     251   84  2   0.42380     31.697037559400    -36.132122816800     36.672836787800
     252   84  2   0.42380     32.463388975800    -37.553988611900     36.912898576900
     253   85  1  -0.84760     18.908893499500    -13.383393971500    -17.634348783300
     254   85  2   0.42380     17.958044276600    -13.692433015300    -17.653858392500
     255   85  2   0.42380     19.492489182900    -14.121783362000    -17.296418041300
     256   86  1  -0.84760    -24.369040865200      8.474182826750      7.537714441540
     257   86  2   0.42380    -23.596050680500      9.106614526990      7.487551519120
     258   86  2   0.42380    -25.087532081700      8.775606447640      6.910885778680
     259   87  1  -0.84760     14.404928564700     25.276536516700     -7.696985653410
     260   87  2   0.42380     14.646316164300     25.021465569700     -6.760678631770
     261   87  2   0.42380     14.645306093700     26.234434136800     -7.853991363890
     262   88  1  -0.84760     34.237600390200    -24.211864295300      1.727965053030
     263   88  2   0.42380     33.926889524600    -23.266479553100      1.629443749880
     264   88  2   0.42380     33.459246658000    -24.831059160900      1.624219277600
     265   89  1  -0.84760     15.259670538700     19.593462343000     -9.705104498190
     266   89  2   0.42380     15.295738508900     19.030429502700    -10.530751591200
     267   89  2   0.42380     15.334518937400     20.558517462500     -9.956234611010
     268   90  1  -0.84760     13.553565878600     16.896489869100     21.359128235100
     269   90  2   0.42380     13.242582116700     17.158460365200     20.445530643700
     270   90  2   0.42380     12.806440124600     17.016909794900     22.012811758800
     271   91  1  -0.84760     -5.046854073500     34.328338184000    -19.398134133700
     272   91  2   0.42380     -4.818098282370     35.140715814100    -19.934523333900
     273   91  2   0.42380     -5.448941551880     33.635806851200    -19.997071536800
     274   92  1  -0.84760     -0.785238130996      8.067921218180    -16.609955760800
     275   92  2   0.42380     -1.631613069090      7.718228926360    -16.208253426700
     276   92  2   0.42380     -0.309199666063      8.638063563500    -15.940384938600
     277   93  1  -0.84760    -37.676571180100     34.016235429700     36.828859843900
     278   93  2   0.42380    -37.031549715000     34.759384007400     37.006841587700
     279   93  2   0.42380    -37.599474743500     33.328029274700     37.550267099000
     280   94  1  -0.84760     25.118020017300     33.808335666600    -38.015651396300
     281   94  2   0.42380     24.373638330800     34.353870310200    -37.630569771700
     282   94  2   0.42380     24.743523395100     33.140106539800    -38.658474944423
     283   95  1  -0.84760    -32.941803681300     34.632470495200     -7.229139564910
     284   95  2   0.42380    -32.264547132600     33.897042982000     -7.250817666250
     285   95  2   0.42380    -32.509159368900     35.492125613500     -7.500823161130
     286   96  1  -0.84760    -16.732842575800    -14.874624606500    -30.846732349800
     287   96  2   0.42380    -17.300259449900    -14.334163070600    -30.225492123300
     288   96  2   0.42380    -17.113460810000    -14.829279417300    -31.770352170800
     289   97  1  -0.84760     -1.037847721980    -31.990503373300      8.075129681290
     290   97  2   0.42380     -1.299127986130    -31.284459322700      7.416924225400
     291   97  2   0.42380     -0.696320863881    -32.792721773300      7.585430749380
     292   98  1  -0.84760     35.414123754200      5.853923421740    -31.708788688600
     293   98  2   0.42380     35.941205727400      6.268004072430    -32.450895020800
     294   98  2   0.42380     34.677882553700      5.297047465610    -32.093285846300
     295   99  1  -0.84760    -13.888451977900    -17.025705716200     11.831130185200
     296   99  2   0.42380    -14.374350248900    -16.854491467700     12.688211599800
     297   99  2   0.42380    -14.514687831200    -16.898897877800     11.061878322500
     298  100  1  -0.84760    -31.467370235800      3.661228934590    -10.068157568500
     299  100  2   0.42380    -31.087250190100      3.331366167010     -9.204039922960
     300  100  2   0.42380    -31.114439341100      3.105846065530    -10.821144721400
     301  101  1  -0.84760    -30.508729061500    -11.187318208600     14.170027207900
     302  101  2   0.42380    -31.499956420900    -11.057293790300     14.146321246900
     303  101  2   0.42380    -30.081006577300    -10.406928359300     14.626146884800
     304  102  1  -0.84760     -6.462959711680    -21.560818313300     -0.053930970488
     305  102  2   0.42380     -6.955979155790    -22.400539458200     -0.281527601858
     306  102  2   0.42380     -5.479134613240    -21.739844452400     -0.060080538990
     307  103  1  -0.84760    -33.852116529900    -30.019168301100     -8.008303381760
     308  103  2   0.42380    -33.016817855300    -30.162258741400     -8.539152936830
     309  103  2   0.42380    -33.683637192700    -29.333530052000     -7.300126211570
     310  104  1  -0.84760    -34.702270725900    -30.037796793400     17.116361665900
     311  104  2   0.42380    -35.280638817400    -29.369565402400     17.584290249000
     312  104  2   0.42380    -34.390668882700    -29.657214088100     16.245694625200
     313  105  1  -0.84760     -2.177486450420     29.815703633900     12.360553387300
     314  105  2   0.42380     -1.362687246320     29.611213592000     11.818071977700
     315  105  2   0.42380     -2.106170437330     30.740873420200     12.733346751900
     316  106  1  -0.84760    -27.428960941800     28.602188993000    -25.038056355200
     317  106  2   0.42380    -27.352119627700     29.422815954300    -25.604330849400
     318  106  2   0.42380    -27.613226114500     27.810932544500    -25.621116882700
     319  107  1  -0.84760     32.365295049800    -34.376558889700    -13.956402619800
     320  107  2   0.42380     33.047819272300    -34.410773972700    -14.686464270600
     321  107  2   0.42380     32.565306722700    -35.085083079700    -13.279653919900
     322  108  1  -0.84760    -22.713300672000    -25.688231306500     34.469881737800
     323  108  2   0.42380    -23.703196433800    -25.803951278000     34.551828482600
     324  108  2   0.42380    -22.263644511800    -26.574239787200     34.583011351900
     325  109  1  -0.84760     30.080308809800     18.388913318200    -29.738732205900
     326  109  2   0.42380     30.384564459900     17.866649255400    -30.535393205400
     327  109  2   0.42380     30.862915235500     18.856955765900    -29.328289214100
     328  110  1  -0.84760     31.029068557600    -17.591417083900     22.725195486600
     329  110  2   0.42380     30.171420067000    -17.147465100700     22.984705993500
     330  110  2   0.42380     31.799556985100    -17.027683641200     23.022772684300
     331  111  1  -0.84760     27.006412794700     33.793393379100     16.928732535100
     332  111  2   0.42380     27.283232238200     34.097632600500     17.840220051100
     333  111  2   0.42380     26.009996333100     33.831170841600     16.853054940300
     334  112  1  -0.84760    -12.032292751100    -37.152822179200    -35.846805302500
     335  112  2   0.42380    -12.802738133800    -37.612212436700    -35.404793420700
     336  112  2   0.42380    -11.381657263100    -37.836495980200    -36.177355745700
     337  113  1  -0.84760     -5.439058949510     15.134986198100     -9.304929481660
     338  113  2   0.42380     -4.966078197320     15.550666858900    -10.081781331300
     339  113  2   0.42380     -6.342095230200     15.552150452600     -9.202462606760
     340  114  1  -0.84760     25.027542491900     31.431694406400    -25.685627668900