LAMMPS Atom File

         4500 atoms
         3000 bonds
         1500 angles
           0 dihedrals
           0 impropers

           2 atom types
           1 bond types
           1 angle types

         0.0  36.1481453771 xlo xhi
         0.0  36.1481453771 ylo yhi
         0.0  36.1481453771 zlo zhi

Masses

         1   15.9994
         2   1.00794

Atoms

       1    1  1  -0.84760    -14.029074703100     -8.864219397350    -11.041500615000
       2    1  2   0.42380    -13.223134576700     -9.172190277450    -11.547083891600
       3    1  2   0.42380    -14.749930830500     -8.609914696950    -11.686245186900
       4    2  1  -0.84760     -8.319739773590     15.219387030600     -8.351541923920
       5    2  2   0.42380     -7.802159508850     14.713198337200     -9.041385149710
       6    2  2   0.42380     -9.291851769020     15.001260919400     -8.437677096190
       7    3  1  -0.84760     16.187426083200    -11.508431780300      4.431653074480
       8    3  2   0.42380     15.300004220400    -11.588045941800      4.885683935560
       9    3  2   0.42380     16.065440223200    -11.087103724700      3.532986217700
      10    4  1  -0.84760      0.742573936152      8.729585175010     -9.673678637200
      11    4  2   0.42380      0.142056216415      9.434000005820    -10.052067609600
      12    4  2   0.42380      0.700151691445      7.911874049630    -10.247742108100
      13    5  1  -0.84760    -14.852937876900     -2.679283062890     14.218743296600
      14    5  2   0.42380    -13.885177770900     -2.908509420750     14.114361047400
      15    5  2   0.42380    -14.938644003900     -1.802606860740     14.692128231300
      16    6  1  -0.84760     16.692239659100     17.181576045000    -12.805556642700
      17    6  2   0.42380     16.283891068100     16.489810132200    -12.209980157200
      18    6  2   0.42380     16.067080914500     17.383296537500    -13.559536342000
      19    7  1  -0.84760    -10.655478607000      0.316352395981     14.201000442100
      20    7  2   0.42380    -10.544389665200     -0.391839808977     14.898225691100
      21    7  2   0.42380    -10.029759225000      1.072766539870     14.391559876200
      22    8  1  -0.84760     -6.210452150920    -14.035238091800      0.796743097745
      23    8  2   0.42380     -6.142880215990    -13.508669992300     -0.050700157127
      24    8  2   0.42380     -7.128267007950    -14.424450468900      0.875034947632
      25    9  1  -0.84760      0.638893620506      5.032801485040     10.731322150500
      26    9  2   0.42380      1.340932475980      4.640425097530     11.325613506600
      27    9  2   0.42380      0.522109598972      4.452540306130      9.925308219730
      28   10  1  -0.84760    -12.332052395300      8.260749286920     10.608588523400
      29   10  2   0.42380    -12.236456255300      9.166008639040     10.194623689900
      30   10  2   0.42380    -11.848239182800      8.241571598700     11.483549660700
      31   11  1  -0.84760    -13.057199898100     12.687196547700      6.979759738950
      32   11  2   0.42380    -13.725796148700     12.632601982000      6.238140910180
      33   11  2   0.42380    -12.157918678100     12.907991651300      6.602211318870
      34   12  1  -0.84760      6.295677540160      0.337941753342     12.997528561900
      35   12  2   0.42380      6.309902143100      0.134283994899     13.976467364000
      36   12  2   0.42380      7.192240921090      0.137845234541     12.602388729500
      37   13  1  -0.84760     -5.938529187630    -14.364476568300     -6.651730301530
      38   13  2   0.42380     -5.436272999210    -14.052339208300     -5.845312922200
      39   13  2   0.42380     -5.340424280840    -14.931480636300     -7.218102005730
      40   14  1  -0.84760    -17.109758853000      4.778866799310     -1.293997105140
      41   14  2   0.42380    -17.361195640700      4.732988223710     -0.327211349097
      42   14  2   0.42380    -17.513582778900      5.596180965140     -1.705000500740
      43   15  1  -0.84760      1.491350085050      1.369297193250     14.641386634300
      44   15  2   0.42380      2.250712429940      0.719311834235     14.671183651400
      45   15  2   0.42380      1.851488145930      2.302028750370     14.623711243000
      46   16  1  -0.84760     -7.904136231830      6.119566240290      3.263268535030
      47   16  2   0.42380     -8.190857215880      5.237071881200      3.636088576720
      48   16  2   0.42380     -7.432555288310      5.976447709000      2.393137223270
      49   17  1  -0.84760      9.044019663000     -0.537406028585     11.874062665700
      50   17  2   0.42380      9.808877887120     -0.860636477045     12.431300473300
      51   17  2   0.42380      8.313381564870     -1.220115522550     11.882764183600
      52   18  1  -0.84760      0.209593325495      2.253665437370     -1.780741305430
      53   18  2   0.42380     -0.735708766633      2.569525720620     -1.862204401870
      54   18  2   0.42380      0.223989037515      1.255177845560     -1.727681975580
      55   19  1  -0.84760     -8.970124890890     14.681548106200      6.359513626800
      56   19  2   0.42380     -8.156798508430     15.226929413400      6.156882372210
      57   19  2   0.42380     -9.783790046200     15.259049604000      6.292872535470
      58   20  1  -0.84760      8.028817577570     -5.546400832090    -16.772918096900
      59   20  2   0.42380      7.794936743410     -4.854525489020    -17.456005401100
      60   20  2   0.42380      7.354983000010     -6.284708164560    -16.802059903800
      61   21  1  -0.84760    -14.789266696700      8.310841723960    -14.873502584800
      62   21  2   0.42380    -14.900323096900      7.646202341590    -14.134637937300
      63   21  2   0.42380    -14.847999041100      7.842250463910    -15.754963158400
      64   22  1  -0.84760    -14.395485900400    -12.517255979500    -17.560018755700
      65   22  2   0.42380    -14.919984051000    -12.271821359800    -16.744749758700
      66   22  2   0.42380    -14.408923910000    -13.510108599700    -17.678606674300
      67   23  1  -0.84760     16.708734313500     -5.799198548390      8.303142384230
      68   23  2   0.42380     16.172507288500     -5.129898312700      8.817435853170
      69   23  2   0.42380     17.399777478300     -5.324623552960      7.757947081600
      70   24  1  -0.84760     -4.817234449630     -5.508503453810    -11.334093174900
      71   24  2   0.42380     -5.402465764480     -5.850716208530    -12.069208634300
      72   24  2   0.42380     -4.631090131940     -6.246402392390    -10.685359447200
      73   25  1  -0.84760     10.508442994800      8.752103786500      1.677038455230
      74   25  2   0.42380     11.244614595700      8.862668776200      2.344741051510
      75   25  2   0.42380     10.641636626200      9.396745606190      0.924246066274
      76   26  1  -0.84760      8.961347409110      0.928976491924     -1.650799699690
      77   26  2   0.42380      8.673336775490      1.885706213330     -1.692249851680
      78   26  2   0.42380      8.165307309960      0.348354316244     -1.479925331650
      79   27  1  -0.84760     -7.286180064620      7.223119038760     -3.356882149250
      80   27  2   0.42380     -7.448221691200      6.707407459180     -2.515583107330
      81   27  2   0.42380     -7.990162427650      7.926142215990     -3.457714905880
      82   28  1  -0.84760      0.925511713165     14.325636025600     -0.482613087006
      83   28  2   0.42380      1.868634671090     14.657838510600     -0.469940470739
      84   28  2   0.42380      0.922146939941     13.328810519100     -0.403066950087
      85   29  1  -0.84760     -1.445381236730    -15.585566015700    -13.707728135700
      86   29  2   0.42380     -0.975976823062    -15.129744721000    -14.463959875100
      87   29  2   0.42380     -1.589955683250    -16.548152077300    -13.936914311700
      88   30  1  -0.84760     15.037103222100      2.050992797750      7.941588270490
      89   30  2   0.42380     14.233540735100      1.461795444020      7.857126397560
      90   30  2   0.42380     15.844538873100      1.489532665980      8.122724103350
      91   31  1  -0.84760      1.773228034880    -16.523224188300      6.940915151040
      92   31  2   0.42380      2.217744220740    -17.076878626200      6.236733268330
      93   31  2   0.42380      1.113329733210    -15.906028779300      6.512424709530
      94   32  1  -0.84760    -13.284308597100     -9.051239833610     -8.104273701600
      95   32  2   0.42380    -13.548414162500     -9.996187186050     -7.911082730120
      96   32  2   0.42380    -13.764423211700     -8.731307477470     -8.921055951860
      97   33  1  -0.84760     -6.023354595880     -7.244562148530     -9.328941897160
      98   33  2   0.42380     -5.920031577250     -6.382856665740     -8.832164266060
      99   33  2   0.42380     -6.874615080620     -7.689589494080     -9.050901884180
     100   34  1  -0.84760    -11.974427532500     10.582678417100      9.515202182780
     101   34  2   0.42380    -12.081966925100     10.672296409500      8.525048712610
     102   34  2   0.42380    -11.727318079800     11.469685104000      9.905274042590
     103   35  1  -0.84760      8.464605831430    -12.737954428400    -12.921834158600
     104   35  2   0.42380      7.888788673350    -13.245037987100    -12.280506734400
     105   35  2   0.42380      8.750003585670    -13.343876004400    -13.664402112100
     106   36  1  -0.84760      1.411851638460      8.841572906860     16.975282588900
     107   36  2   0.42380      2.050535426720      8.190898693740     16.564544123500
     108   36  2   0.42380      1.884099352310      9.373854649730     17.677890760600
     109   37  1  -0.84760      7.805331505130      3.482070855660     -2.070600309120
     110   37  2   0.42380      8.233670139450      3.407170218390     -1.170091614610
     111   37  2   0.42380      6.996135466450      4.066184336990     -2.007250392700
     112   38  1  -0.84760    -16.423713499300     17.665381875000    -11.238050574000
     113   38  2   0.42380    -16.349663401700     18.480859252112    -10.664018144200
     114   38  2   0.42380    -15.707401619200     17.682635354100    -11.935617494000
     115   39  1  -0.84760      4.223897417810     14.114894098300    -15.423828091200
     116   39  2   0.42380      4.605101973460     13.396849234700    -14.841509741400
     117   39  2   0.42380      3.532996062760     13.720780289700    -16.029905333300
     118   40  1  -0.84760      5.029753733480     12.649634996800     14.698207919100
     119   40  2   0.42380      5.272322833440     13.134259862700     15.538623870300
     120   40  2   0.42380      5.492053541120     13.077411106800     13.921492728300
     121   41  1  -0.84760    -11.471320439900    -12.516700810200     12.298346699500
     122   41  2   0.42380    -12.089285414200    -12.947220331400     12.956200963400
     123   41  2   0.42380    -11.956722455400    -11.791152662200     11.810530373100
     124   42  1  -0.84760     14.008320802900    -13.893237937100    -11.268837190600
     125   42  2   0.42380     14.254544991600    -14.446437516000    -10.473008141900
     126   42  2   0.42380     13.013204034400    -13.872446459300    -11.365327249600
     127   43  1  -0.84760     -9.952431619590      2.785603094880     -8.911121567270
     128   43  2   0.42380    -10.251235816100      3.657169670660     -9.299821652360
     129   43  2   0.42380    -10.564975842900      2.056752378810     -9.217007507090
     130   44  1  -0.84760     -4.641194749880      1.523271422800     -9.731213733570
     131   44  2   0.42380     -5.618653308320      1.655580542880     -9.566686947680
     132   44  2   0.42380     -4.118342322690      1.946953733790     -8.991539049180
     133   45  1  -0.84760      4.131146025650      8.378279526200     10.756050257900
     134   45  2   0.42380      3.794361026680      9.241255718720     11.132677335500
     135   45  2   0.42380      5.129908518380      8.361402204300     10.802833151500
     136   46  1  -0.84760     -0.099058905462     10.663572691600      5.182762439090
     137   46  2   0.42380      0.119292746643     11.366916431600      4.506278781200
     138   46  2   0.42380      0.657156484879     10.011942392400      5.242060302690
     139   47  1  -0.84760      3.310767555730    -11.866177247500      9.438120160860
     140   47  2   0.42380      4.098553980890    -11.469535795500      8.966879132410
     141   47  2   0.42380      2.890587972100    -11.174337337400     10.025322558900
     142   48  1  -0.84760     11.274066129900    -11.063535399600    -15.063899916400
     143   48  2   0.42380     11.576948534500    -10.261640471300    -15.578901637700
     144   48  2   0.42380     10.571480292300    -10.791517355900    -14.406344348600
     145   49  1  -0.84760     -3.208295185510     -0.133689230901    -15.186160555800
     146   49  2   0.42380     -2.280705292240     -0.039656232332    -14.824587900400
     147   49  2   0.42380     -3.372462347430      0.575900212114    -15.871384581400
     148   50  1  -0.84760    -13.248150379500      2.978697729800     -1.065097642620
     149   50  2   0.42380    -12.257896961000      2.896122910770     -1.177256308480
     150   50  2   0.42380    -13.601893595100      3.653202311380     -1.713101737400
     151   51  1  -0.84760     10.319759524700     12.830974720400     17.158227244000
     152   51  2   0.42380      9.763136853990     12.193473266700     17.690921433000
     153   51  2   0.42380      9.774710306560     13.201121834500     16.405955708100
     154   52  1  -0.84760      5.792152218090     -4.003746646320     -2.416291726710
     155   52  2   0.42380      5.262030475810     -3.649858679170     -1.645750199550
     156   52  2   0.42380      6.766788388910     -3.861127757510     -2.243826695200
     157   53  1  -0.84760    -11.724013940100     -5.976262270720      6.403647704900
     158   53  2   0.42380    -11.329551508600     -6.876931050990      6.585843035150
     159   53  2   0.42380    -11.003383670900     -5.283761867930      6.437340540500
     160   54  1  -0.84760     -4.661758051470     -3.723997487550      1.797899069870
     161   54  2   0.42380     -4.600172503220     -2.875299844010      1.272618639920
     162   54  2   0.42380     -5.083794552010     -4.434566636020      1.234892251570
     163   55  1  -0.84760    -17.190392443600     -5.104905488790     -5.618369594910
     164   55  2   0.42380    -16.375482118600     -5.586369513110     -5.295703272740
     165   55  2   0.42380    -17.698357990700     -5.693722120620     -6.247071413780
     166   56  1  -0.84760     -8.796295168890     -4.589515300690     17.994218401500
     167   56  2   0.42380     -9.523132883090     -4.772206182540     18.656284092312
     168   56  2   0.42380     -7.909247204450     -4.626435029780     18.454417100312
     169   57  1  -0.84760      2.336970693070     10.742805742400     10.844050255200
     170   57  2   0.42380      1.969321157120     11.427499990300     10.214743012600
     171   57  2   0.42380      1.682533935230      9.992804280410     10.940020755500
     172   58  1  -0.84760     -6.458192204550      5.594825617040     17.469606474300
     173   58  2   0.42380     -5.675503631970      5.763244753470     18.068800593800
     174   58  2   0.42380     -7.299135290270      5.598706219230     18.010716137400
     175   59  1  -0.84760    -12.174093868500     -3.691142950840     -3.992784187350
     176   59  2   0.42380    -11.271277225400     -3.264204419740     -3.941348794090
     177   59  2   0.42380    -12.600663120600     -3.464330359740     -4.868338138650
     178   60  1  -0.84760     -0.526268262141     13.661102757900     11.262487000300
     179   60  2   0.42380      0.411657253561     13.316144833900     11.226434848100
     180   60  2   0.42380     -0.688215893548     14.268313087100     10.484625456900
     181   61  1  -0.84760     -9.850416522910    -17.890942611800     -1.798085569080
     182   61  2   0.42380     -9.327291248910    -17.454421856700     -2.530062056450
     183   61  2   0.42380    -10.212830493200    -17.190051437500     -1.183750419660
     184   62  1  -0.84760    -11.991300912100    -17.577223498700      4.951861461730
     185   62  2   0.42380    -11.155829785400    -17.724436300700      5.481310597630
     186   62  2   0.42380    -12.645354580300    -17.055398655100      5.499504257320
     187   63  1  -0.84760     -6.850817900290     14.492536553200    -14.620678593700
     188   63  2   0.42380     -6.860037464900     13.823546107000    -15.363892413900
     189   63  2   0.42380     -6.692745229260     15.405772219100    -14.996196434900
     190   64  1  -0.84760     -7.819072207790     12.293764455000    -13.147661880200
     191   64  2   0.42380     -6.879494884560     12.634285198900    -13.112447158700
     192   64  2   0.42380     -8.326757652080     12.788682933100    -13.852864822300
     193   65  1  -0.84760    -10.091192741100     -3.538941964160    -12.071530623100
     194   65  2   0.42380    -10.101070397600     -2.581126016920    -11.784318083100
     195   65  2   0.42380    -10.860415738400     -3.710278459890    -12.687111475400
     196   66  1  -0.84760     -1.319239017940    -15.971474187200     14.350499267600
     197   66  2   0.42380     -0.896057350461    -15.966380685700     13.444468731300
     198   66  2   0.42380     -1.329193795590    -16.905148645600     14.708483775700
     199   67  1  -0.84760     17.058185270100    -13.011576380000      9.070187147830
     200   67  2   0.42380     17.077583998300    -13.678456181700      9.815099907500
     201   67  2   0.42380     17.985982414000    -12.870638916600      8.724746717080
     202   68  1  -0.84760     -9.961627913550     -4.537278160860     11.280383913300
     203   68  2   0.42380    -10.660886726200     -4.132490734480     11.869607344900
     204   68  2   0.42380     -9.058025971860     -4.222168554100     11.570572587600
     205   69  1  -0.84760     -3.071621512100     -7.481354946510      1.631293569090
     206   69  2   0.42380     -2.775711295430     -6.751514834110      1.015038302180
     207   69  2   0.42380     -4.034010266630     -7.692354019050      1.460158311050
     208   70  1  -0.84760     10.475551903700    -13.437246108500      5.048424860880
     209   70  2   0.42380      9.885474540820    -14.007772078700      4.477190387940
     210   70  2   0.42380      9.966834542670    -13.133413357800      5.853963380250
     211   71  1  -0.84760     13.767169100700     -0.831026952547     13.314342884400
     212   71  2   0.42380     14.691465097400     -0.710304632078     12.952261357900
     213   71  2   0.42380     13.765346859600     -1.575462183630     13.982035078600
     214   72  1  -0.84760     -0.924484481493     -5.431419901750      5.309870929370
     215   72  2   0.42380     -1.416720094290     -5.961289963360      6.000480673950
     216   72  2   0.42380     -1.433808174280     -4.595434631370      5.105621073380
     217   73  1  -0.84760     15.666181370700      5.842528838080    -16.032361473100
     218   73  2   0.42380     15.524843068400      6.540066475540    -15.329891026300
     219   73  2   0.42380     15.212261602600      4.995174936310    -15.756774446400
     220   74  1  -0.84760     -1.738722794440     -5.716522646820    -16.502490550100
     221   74  2   0.42380     -2.138629977410     -5.859571864580    -15.597166759200
     222   74  2   0.42380     -2.114406224650     -4.881596563500    -16.904685025000
     223   75  1  -0.84760      9.911481634000     -9.906877023590      3.707785219040
     224   75  2   0.42380      9.047477249820     -9.750967482180      3.229048716340
     225   75  2   0.42380     10.590684389700    -10.258688867300      3.063648553980
     226   76  1  -0.84760     -1.868376122520      5.132591031890     -9.906636879480
     227   76  2   0.42380     -1.518478177940      5.945101916580     -9.440377841340
     228   76  2   0.42380     -1.917523109920      4.372022276900     -9.259242299210
     229   77  1  -0.84760     10.868629046900      4.230045804310    -16.864943656200
     230   77  2   0.42380     10.425532289100      4.472731123590    -16.001943598900
     231   77  2   0.42380     11.161688348200      5.062693571440    -17.334852096100
     232   78  1  -0.84760     -1.605102241480    -14.749704056800     -3.042714333000
     233   78  2   0.42380     -1.196424338880    -14.478645530100     -2.171215826420
     234   78  2   0.42380     -1.211618889460    -14.201011554200     -3.780350685970
     235   79  1  -0.84760    -15.239309683400    -12.741433128900     12.422873542000
     236   79  2   0.42380    -15.756397305500    -13.002209773300     11.607633741200
     237   79  2   0.42380    -14.674411356300    -13.511355680600     12.719705387300
     238   80  1  -0.84760      7.257604057750     -7.477599687400     -5.181838661800
     239   80  2   0.42380      6.989709246400     -8.160797194280     -5.861157097180
     240   80  2   0.42380      7.695286243860     -7.932507320220     -4.406278638610
     241   81  1  -0.84760     14.037595607700      5.245788454370     13.627746818400
     242   81  2   0.42380     14.619658351400      4.440865935180     13.512409484900
     243   81  2   0.42380     14.524251336400      6.057919592640     13.305862963500
     244   82  1  -0.84760     13.250861883500    -17.687547406600     17.390275196200
     245   82  2   0.42380     12.450896291200    -17.249814991600     17.800696180000
     246   82  2   0.42380     13.826238022300    -18.073564015800     18.111339324012
     247   83  1  -0.84760      8.928083582030     -6.319146067030     -8.326290475760
     248   83  2   0.42380      8.951930589970     -6.924030966460     -7.530334711510
     249   83  2   0.42380      8.466327025220     -5.466159815250     -8.082989558140
     250   84  1  -0.84760     13.761499201800     10.985419613700      2.218066229210
     251   84  2   0.42380     13.550181245800     10.807211923700      1.257032025500
     252   84  2   0.42380     14.505015278000     11.651455477700      2.277899934520
     253   85  1  -0.84760     15.339309893400    -10.402947881000      2.150883563070
     254   85  2   0.42380     15.366859423000     -9.706622653190      1.433686100400
     255   85  2   0.42380     14.639860552300    -11.082354884400      1.929125264350
     256   86  1  -0.84760      5.961308377380     10.250926367100     -3.889847746260
     257   86  2   0.42380      5.397503881430      9.732068473700     -3.247266251960
     258   86  2   0.42380      5.776704805950     11.227777989700     -3.781762461270
     259   87  1  -0.84760      6.199822220370      8.253512996630     13.164125112400
     260   87  2   0.42380      6.686333618470      8.581030515110     13.974087416800
     261   87  2   0.42380      5.720407714530      9.017205673000     12.731765045300
     262   88  1  -0.84760     -4.689327775160     16.759846871500     -8.320551908880
     263   88  2   0.42380     -4.863523382100     17.740814826300     -8.406329308040
     264   88  2   0.42380     -4.226668642420     16.430259823400     -9.143545775570
     265   89  1  -0.84760     -0.370760545323      3.809375465100     -7.842609792610
     266   89  2   0.42380      0.238396641334      4.070773758680     -7.093878563090
     267   89  2   0.42380     -0.242333886636      2.840446180130     -8.053992464700
     268   90  1  -0.84760     17.996122029000     15.843963386900     15.985106949000
     269   90  2   0.42380     17.651686255700     15.432487322100     16.828938357600
     270   90  2   0.42380     18.756844351712     16.456651787200     16.199383573400
     271   91  1  -0.84760     10.342784297600     17.257048170100     15.024333411700
     272   91  2   0.42380     10.072978401500     17.613307758000     14.129747538500
     273   91  2   0.42380      9.893573490230     17.787140286900     15.743507937300
     274   92  1  -0.84760    -14.789119084900     17.457529787200     -4.886139516960
     275   92  2   0.42380    -14.441538404300     18.083905409812     -4.188399415070
     276   92  2   0.42380    -15.013499639300     16.579347963600     -4.463706029210
     277   93  1  -0.84760     -8.909548166600     -7.715576911400    -16.931585249000
     278   93  2   0.42380     -8.237559571310     -7.814710450710    -17.665481610300
     279   93  2   0.42380     -9.552216693340     -8.481098628790    -16.962466715200
     280   94  1  -0.84760     -6.039286996430     -9.335533601210      2.283774900020
     281   94  2   0.42380     -5.621937159770    -10.087525469700      1.773552062920
     282   94  2   0.42380     -5.321889389970     -8.772776822610      2.694439583650
     283   95  1  -0.84760    -16.024259073400      2.637524239390      1.848235212720
     284   95  2   0.42380    -15.269865575300      3.268285561750      1.666491975680
     285   95  2   0.42380    -16.328462832100      2.745627825710      2.794688427530
     286   96  1  -0.84760    -15.878707884100     -1.521221635360      7.340724061790
     287   96  2   0.42380    -15.325795921900     -0.705844198400      7.512328249820
     288   96  2   0.42380    -15.326547969300     -2.203613836770      6.861703903570
     289   97  1  -0.84760     -5.083048402880    -13.820376482600     -1.660879225340
     290   97  2   0.42380     -4.441468589850    -14.118406379200     -2.367670229970
     291   97  2   0.42380     -5.202067978630    -12.828980894300     -1.715368931670
     292   98  1  -0.84760     -0.210090025231     13.751176552300      6.038950364370
     293   98  2   0.42380     -0.721009707956     13.659833882700      5.184188646400
     294   98  2   0.42380      0.687164852635     14.150186432000      5.849940311440
     295   99  1  -0.84760    -13.722784023400     11.491354725400     -9.193505474980
     296   99  2   0.42380    -13.233743944800     12.334918951600     -8.971606403880
     297   99  2   0.42380    -13.970505383600     11.494690478100    -10.162331052900
     298  100  1  -0.84760     14.834299569800    -14.999120305500     -8.999711089560
     299  100  2   0.42380     15.091313825000    -14.133988671800     -8.569024510970
     300  100  2   0.42380     15.570648160500    -15.301936258100     -9.604767493440
     301  101  1  -0.84760     13.493755835000      9.289673365480    -11.839301355700
     302  101  2   0.42380     12.669980643700      8.786531698970    -12.100534771700
     303  101  2   0.42380     13.846245729500      8.927090928080    -10.976581905100
     304  102  1  -0.84760     15.577308897000     -8.561685342990     12.051966443500
     305  102  2   0.42380     15.567767352900     -8.606900123640     13.050898164200
     306  102  2   0.42380     15.759709029600     -9.471369156790     11.678863842900
     307  103  1  -0.84760     12.501895552800     17.845104561700      9.416034584000
     308  103  2   0.42380     13.023823346800     17.041720897300      9.129388346260
     309  103  2   0.42380     11.708440842800     17.553837513600      9.950443724920
     310  104  1  -0.84760     -6.304342702090    -17.398047409100     17.923019482700
     311  104  2   0.42380     -6.114074830560    -16.425363092600     17.790040697100
     312  104  2   0.42380     -5.579516247960    -17.940557471400     17.498390887600
     313  105  1  -0.84760     -2.314162585230      6.812146845600     -5.860847295170
     314  105  2   0.42380     -3.142452907350      7.351699757050     -5.709791682780
     315  105  2   0.42380     -2.385267179710      6.329642686520     -6.733850086190
     316  106  1  -0.84760     12.606940568800     16.124294741700     -8.513946088780
     317  106  2   0.42380     12.976263664300     15.203542843300     -8.388182848050
     318  106  2   0.42380     12.223506224500     16.206853534600     -9.433816812990
     319  107  1  -0.84760     13.192717722000    -15.406814851500     15.472728946800
     320  107  2   0.42380     13.014345079200    -15.377701117800     14.489196745600
     321  107  2   0.42380     13.559088322300    -16.304207129000     15.718614455500
     322  108  1  -0.84760      0.554416076314     17.746991430000     -1.985216486920
     323  108  2   0.42380      0.743073812715     17.781111626900     -2.966666470700
     324  108  2   0.42380     -0.407093959297     17.514667989000     -1.838504966650
     325  109  1  -0.84760    -17.384549667600     15.410698277100     -0.135885271789
     326  109  2   0.42380    -17.002314625100     15.499385746300      0.783914111298
     327  109  2   0.42380    -16.812611724500     14.793705674100     -0.676447124958
     328  110  1  -0.84760      0.913663775600      2.159340690290      6.260268264530
     329  110  2   0.42380      0.281078029484      1.498835916760      5.855831968000
     330  110  2   0.42380      1.696774081240      1.675069563270      6.650421727570
     331  111  1  -0.84760      0.974568879932     -7.676617025350     -1.729195168430
     332  111  2   0.42380      0.424989002694     -7.413530862920     -0.936259086723
     333  111  2   0.42380      1.903826809280     -7.322816371470     -1.622871144570
     334  112  1  -0.84760    -12.424758366100     -4.769032991020     -6.625084293070
     335  112  2   0.42380    -12.372278151000     -5.758932769630     -6.493386702550
     336  112  2   0.42380    -12.555729052100     -4.568429316130     -7.595962681450
     337  113  1  -0.84760     11.743046000400     -2.751595451380      0.213834638031
     338  113  2   0.42380     12.481113923100     -3.358240576120      0.509194476296
     339  113  2   0.42380     11.953056018600     -1.813140400670      0.488057011377
     340  114  1  -0.84760     -4.207133040720     16.561074246800    -13.715420805700