LAMMPS Atom File

         4500 atoms
         3000 bonds
         1500 angles
           0 dihedrals
           0 impropers

           2 atom types
           1 bond types
           1 angle types

         0.0  144.088770519 xlo xhi
         0.0  144.088770519 ylo yhi
         0.0  144.088770519 zlo zhi

Masses

         1   15.9994
         2   1.00794

Atoms

       1    1  1  -0.84760    -44.743771092700     19.863272952300    -48.706797823000
       2    1  2   0.42380    -45.610553622200     20.088605517700    -49.151672278900
       3    1  2   0.42380    -44.891780360100     19.134345859700    -48.038397830200
       4    2  1  -0.84760    -62.801892617000    -46.761413749800    -31.261210503000
       5    2  2   0.42380    -62.012136655700    -46.388071411400    -31.747935291800
       6    2  2   0.42380    -63.597088629300    -46.762562022200    -31.867561872600
       7    3  1  -0.84760    -31.221981004800     47.366547730200    -13.737819454000
       8    3  2   0.42380    -31.854292865100     47.963451140500    -13.243969243700
       9    3  2   0.42380    -31.100591668600     47.707884990900    -14.669888927500
      10    4  1  -0.84760     62.264534768300    -41.888975439900     23.838437473200
      11    4  2   0.42380     63.217430953100    -41.752737410700     24.109413598500
      12    4  2   0.42380     61.734613693800    -41.070481229500     24.060362871100
      13    5  1  -0.84760      2.778856827450     35.215289498500    -30.597770934800
      14    5  2   0.42380      2.513644752380     36.155376215500    -30.383529202800
      15    5  2   0.42380      3.358508543370     35.209961907600    -31.412617856000
      16    6  1  -0.84760    -22.783572966500    -51.367406212500     26.659215598800
      17    6  2   0.42380    -23.506209422600    -52.058602905400     26.652606213600
      18    6  2   0.42380    -22.023806351200    -51.684930755800     27.226606870100
      19    7  1  -0.84760    -55.671927644000    -22.145441437600     67.789010920100
      20    7  2   0.42380    -55.561569148000    -21.622723118900     66.943678700400
      21    7  2   0.42380    -56.560477225700    -21.935667993000     68.197024085100
      22    8  1  -0.84760     71.088128101200     63.827297813200    -54.130898659400
      23    8  2   0.42380     70.453943691400     64.594974741000    -54.038799425900
      24    8  2   0.42380     71.973724296900     64.077789071300    -53.739780380800
      25    9  1  -0.84760    -42.949541299100      5.652520188410     61.493177847500
      26    9  2   0.42380    -43.466382511500      6.476395939860     61.260575381200
      27    9  2   0.42380    -42.420625535100      5.355325074890     60.698241888400
      28   10  1  -0.84760    -33.403530757400    -63.016542502800      2.673486551840
      29   10  2   0.42380    -33.973812686100    -62.340208755600      3.139695929880
      30   10  2   0.42380    -33.633369085100    -63.032389174200      1.700386749100
      31   11  1  -0.84760     -3.641782401300     29.053029805000     41.875855598400
      32   11  2   0.42380     -3.072207320140     28.994984274300     42.695742751200
      33   11  2   0.42380     -4.563364731170     29.346193826000     42.130297863100
      34   12  1  -0.84760    -51.612654579600     37.602925812800     53.832998463700
      35   12  2   0.42380    -51.762147311900     37.635191487700     54.821234695200
      36   12  2   0.42380    -52.213126271600     38.264136843600     53.383294427900
      37   13  1  -0.84760    -56.681462707100     51.509068315800     32.449851480400
      38   13  2   0.42380    -56.379484141800     51.307599538700     33.381634329500
      39   13  2   0.42380    -56.066718053300     51.066254820700     31.797160727300
      40   14  1  -0.84760     31.264468371200      9.663911872770     60.092768183200
      41   14  2   0.42380     30.768435392400      8.901787908250     59.676693254100
      42   14  2   0.42380     30.816578405400      9.926113081440     60.947545993400
      43   15  1  -0.84760    -30.155855184100    -58.271592589600    -12.801860682900
      44   15  2   0.42380    -30.529527197800    -57.839988055300    -11.980832819700
      45   15  2   0.42380    -29.415548817600    -57.707432750400    -13.167469981900
      46   16  1  -0.84760    -71.703134552900     31.591693249700     -7.318764729220
      47   16  2   0.42380    -72.005250994400     32.544614147200     -7.344599179910
      48   16  2   0.42380    -70.920219287400     31.506838850700     -6.702450346780
      49   17  1  -0.84760      7.682983105740      8.541715567970     54.905061668500
      50   17  2   0.42380      7.808949563000      8.442268054600     55.892098974600
      51   17  2   0.42380      7.913382543750      9.475735562800     54.632073118900
      52   18  1  -0.84760    -36.567878224600     16.697192791000     19.676458429000
      53   18  2   0.42380    -36.757706289200     16.769739593800     18.697325002300
      54   18  2   0.42380    -35.604733571900     16.906309289900     19.845640780500
      55   19  1  -0.84760     33.522411661700     -9.700289824270     59.071519853900
      56   19  2   0.42380     33.556443551900    -10.632763109300     59.431152170500
      57   19  2   0.42380     34.207636563600     -9.595826372560     58.350718757200
      58   20  1  -0.84760    -10.786507323400      3.017963697900    -16.834099661600
      59   20  2   0.42380    -11.534666529800      2.888291298490    -16.183374780600
      60   20  2   0.42380    -11.162269358000      3.233741492950    -17.735344820500
      61   21  1  -0.84760    -31.903236674200     64.790563578700     40.930380499400
      62   21  2   0.42380    -31.964291746200     65.599849535500     40.346147225500
      63   21  2   0.42380    -30.977130669400     64.416006651400     40.885272006400
      64   22  1  -0.84760     27.417417973200    -23.765479424200     72.024313289400
      65   22  2   0.42380     28.397070335000    -23.779116004700     71.824075197000
      66   22  2   0.42380     27.142020052600    -24.649619296500     72.401742318018
      67   23  1  -0.84760    -60.472198023400     40.400799392400    -52.099291102600
      68   23  2   0.42380    -59.715881558100     40.529395480700    -51.457848626300
      69   23  2   0.42380    -60.900103479600     41.283961713500    -52.291440094800
      70   24  1  -0.84760    -48.091233566300    -49.207550699900     69.972051950600
      71   24  2   0.42380    -47.647941279400    -48.626298399400     69.289675433200
      72   24  2   0.42380    -49.083887557300    -49.113970186600     69.895365956600
      73   25  1  -0.84760     53.203386676000    -39.605994060200     30.693109833400
      74   25  2   0.42380     53.796476520000    -39.822105182800     31.468700201800
      75   25  2   0.42380     53.132106849000    -40.404505407100     30.095365059100
      76   26  1  -0.84760    -22.634838007100    -22.782818005400    -44.943822202300
      77   26  2   0.42380    -21.825726326900    -23.013023090600    -45.484510567000
      78   26  2   0.42380    -23.069520594600    -21.966972557400    -45.325197677600
      79   27  1  -0.84760     34.832235883600     39.171520794500      9.738335558000
      80   27  2   0.42380     35.271927022700     39.861634786000     10.313152381900
      81   27  2   0.42380     35.460273808500     38.893926453400      9.011348799720
      82   28  1  -0.84760     27.012998164700     -3.129237698250      0.948862353302
      83   28  2   0.42380     26.219600364800     -2.853053924030      1.491303551910
      84   28  2   0.42380     27.740513700100     -3.443746311790      1.558620893800
      85   29  1  -0.84760    -22.188442941400     30.926074731500     -9.113137096320
      86   29  2   0.42380    -21.602418799000     31.686935081100     -8.834448680790
      87   29  2   0.42380    -21.866302656500     30.559604333300     -9.986020298150
      88   30  1  -0.84760      2.651579092370     51.829484406700    -10.009972097400
      89   30  2   0.42380      2.979220264170     51.288388405600     -9.235461684230
      90   30  2   0.42380      3.428467453960     52.264938034900    -10.464751836700
      91   31  1  -0.84760    -11.678059169100    -64.609646488700    -51.355669324200
      92   31  2   0.42380    -11.830021121800    -64.883344062200    -52.305404657400
      93   31  2   0.42380    -10.725803938100    -64.785805917500    -51.106314495400
      94   32  1  -0.84760     53.408767124900     11.939287400900     32.527971138100
      95   32  2   0.42380     54.017124345800     12.492223839100     31.958618183300
      96   32  2   0.42380     53.005013102100     12.513813207300     33.239942195700
      97   33  1  -0.84760     10.291735834400    -70.433761750900     20.711601385900
      98   33  2   0.42380      9.662887802540    -71.071725622900     21.156069889600
      99   33  2   0.42380      9.998918720640    -70.280175807100     19.767848507300
     100   34  1  -0.84760    -54.085072440400    -36.237576511000    -33.459862622300
     101   34  2   0.42380    -54.045961653000    -35.488936912200    -32.798040064900
     102   34  2   0.42380    -54.970372731800    -36.225594848100    -33.924728015500
     103   35  1  -0.84760    -26.597855459600    -34.484896676800    -36.277487781500
     104   35  2   0.42380    -25.717857720800    -34.869073608200    -35.998181381300
     105   35  2   0.42380    -27.331836957100    -34.918520971400    -35.754763062000
     106   36  1  -0.84760    -46.595471519000     34.925563104000     35.346038468200
     107   36  2   0.42380    -45.707456541100     35.112605175200     35.766091634800
     108   36  2   0.42380    -47.302641994300     34.913338248500     36.052975857000
     109   37  1  -0.84760     28.632649113300    -60.627126549100    -48.089610002200
     110   37  2   0.42380     27.864486026100    -61.118939529000    -48.499543489900
     111   37  2   0.42380     28.298022651000    -60.043327661200    -47.349877625500
     112   38  1  -0.84760      0.185322038335     31.702973284100     68.052137403000
     113   38  2   0.42380      1.156563163560     31.757840002400     67.820447265300
     114   38  2   0.42380      0.065791717293     31.873855642900     69.030151575600
     115   39  1  -0.84760     33.249343651000     12.406813553500     -7.423642419700
     116   39  2   0.42380     33.071428056900     11.425172668300     -7.492397157040
     117   39  2   0.42380     33.554057247900     12.753273067500     -8.310837679490
     118   40  1  -0.84760    -71.196059845700    -70.643610116700    -50.652276725100
     119   40  2   0.42380    -70.510212034100    -70.227334766100    -51.249208556800
     120   40  2   0.42380    -71.384766203500    -71.575902285100    -50.960856087800
     121   41  1  -0.84760     16.906098209000     54.188910474600    -68.228152533700
     122   41  2   0.42380     17.853674703500     54.455439501100    -68.051911037100
     123   41  2   0.42380     16.289401218100     54.817501959900    -67.754277480400
     124   42  1  -0.84760     27.170618376100     52.629944113100     67.111423887900
     125   42  2   0.42380     26.576237437400     53.426070619800     67.224975131500
     126   42  2   0.42380     28.088183457200     52.848997027800     67.443222234100
     127   43  1  -0.84760    -42.855288582400    -46.162067866800     56.132703586300
     128   43  2   0.42380    -43.797560239900    -46.427520861600     56.336808537000
     129   43  2   0.42380    -42.323305731300    -46.143880365300     56.979263366200
     130   44  1  -0.84760     57.231737959500    -54.172245500400    -49.360711034400
     131   44  2   0.42380     56.397109677700    -54.241470100400    -49.907157359300
     132   44  2   0.42380     57.066074978900    -53.579079674800    -48.572859474600
     133   45  1  -0.84760    -41.769929423300      5.530580264900    -35.813153094800
     134   45  2   0.42380    -42.552632983300      4.984564304380    -35.514419588200
     135   45  2   0.42380    -40.927701857500      5.132810867630    -35.449240695900
     136   46  1  -0.84760    -25.225687209000      6.406906753620    -43.696287492100
     137   46  2   0.42380    -24.503349709100      7.007754058950    -44.038648488700
     138   46  2   0.42380    -24.906030718400      5.459487671070    -43.711011964400
     139   47  1  -0.84760     17.115883364200     30.997524795900     45.644636212800
     140   47  2   0.42380     17.515465402700     31.622651280400     44.974150513600
     141   47  2   0.42380     17.840706460100     30.451218260200     46.064374999100
     142   48  1  -0.84760    -10.931828697600     42.505316018900     17.747644785100
     143   48  2   0.42380    -11.569467164000     42.190587309600     18.450754325500
     144   48  2   0.42380    -10.072407459200     42.000227209900     17.826893950100
     145   49  1  -0.84760     31.729413290000    -47.660685542800     39.422586934400
     146   49  2   0.42380     31.816032043100    -47.978219816700     38.478304573800
     147   49  2   0.42380     31.802392042000    -48.440398723200     40.044456260000
     148   50  1  -0.84760     42.366550230500    -47.139000769900    -66.447380780200
     149   50  2   0.42380     43.024425494200    -47.124135635300    -65.694400591100
     150   50  2   0.42380     41.492521694300    -47.497408809600    -66.119329267700
     151   51  1  -0.84760    -13.900080951500      9.366383465190    -65.777271009100
     152   51  2   0.42380    -13.141860591000      9.791470199170    -65.282899536000
     153   51  2   0.42380    -13.539193145400      8.802244047460    -66.519905985900
     154   52  1  -0.84760    -47.196445186700     18.559820064900    -22.216566603400
     155   52  2   0.42380    -47.008629516900     18.508837474200    -23.197446845600
     156   52  2   0.42380    -46.360434358600     18.813180137500    -21.729848441700
     157   53  1  -0.84760     40.221259774100     59.785736455800     57.986744311600
     158   53  2   0.42380     40.149413197600     60.055769754700     57.026577614100
     159   53  2   0.42380     41.009196307200     59.181437390600     58.104975693000
     160   54  1  -0.84760     37.118523624100     -9.783905960280     -7.304571545820
     161   54  2   0.42380     36.528997453800     -9.931858256500     -8.098655302450
     162   54  2   0.42380     36.742931595800    -10.269906248400     -6.515436355740
     163   55  1  -0.84760    -39.218174672100    -25.875967055500     20.092710847900
     164   55  2   0.42380    -39.605813958000    -26.716053423000     19.713249810100
     165   55  2   0.42380    -39.452570752900    -25.809119360200     21.062550970300
     166   56  1  -0.84760    -20.582779644400    -13.454062183900      4.776085636800
     167   56  2   0.42380    -20.972797009400    -14.310936667700      5.113209611130
     168   56  2   0.42380    -19.624658247000    -13.391254590000      5.055475318280
     169   57  1  -0.84760     66.524468840800    -20.076801634100    -25.357839901900
     170   57  2   0.42380     66.954944153900    -19.177897959300    -25.439468256200
     171   57  2   0.42380     66.500532154100    -20.517619040800    -26.255117478300
     172   58  1  -0.84760    -28.888802657700    -20.197825630300     62.815279324400
     173   58  2   0.42380    -29.863449539400    -19.980721034900     62.869400029700
     174   58  2   0.42380    -28.376644319900    -19.583490675200     63.415517943600
     175   59  1  -0.84760     16.815037383600     32.475751937400     35.614133513600
     176   59  2   0.42380     15.955487881700     32.813073523100     35.998046005800
     177   59  2   0.42380     16.936729677900     31.514814861300     35.862711311000
     178   60  1  -0.84760    -30.893008340200     24.839813946600     60.607018609800
     179   60  2   0.42380    -30.582231010700     25.321629786000     59.787707345100
     180   60  2   0.42380    -31.649219645900     24.230450942300     60.368646652300
     181   61  1  -0.84760    -53.617017721500     -5.036656000150     -6.071279081910
     182   61  2   0.42380    -53.338738289800     -5.968555502660     -5.838633697020
     183   61  2   0.42380    -54.115593769500     -5.044264284740     -6.938091655870
     184   62  1  -0.84760     -4.307457257530     60.689871041800     52.845480161800
     185   62  2   0.42380     -4.934694708450     60.988068830100     52.126000308600
     186   62  2   0.42380     -3.512995965640     60.245196403300     52.431842976000
     187   63  1  -0.84760    -30.903719164100    -71.354025356600    -11.189288150800
     188   63  2   0.42380    -31.210591605900    -72.114047992418    -10.616405180600
     189   63  2   0.42380    -31.173767227300    -70.488487870800    -10.767483807200
     190   64  1  -0.84760    -35.841923892200    -68.893440502500     15.210689162900
     191   64  2   0.42380    -35.485897116600    -69.502829644800     15.919130980100
     192   64  2   0.42380    -36.205834999400    -68.064738090900     15.635919711200
     193   65  1  -0.84760    -32.442952020300     59.824696798200    -60.199590669400
     194   65  2   0.42380    -32.454659319200     60.803957003500    -59.997322556500
     195   65  2   0.42380    -31.519693475400     59.551061137100    -60.469251909200
     196   66  1  -0.84760    -41.023168929800     29.810997230500    -46.451091894900
     197   66  2   0.42380    -40.028753335600     29.912966777400    -46.423891941700
     198   66  2   0.42380    -41.256327250000     28.844390703400    -46.557435768800
     199   67  1  -0.84760    -33.718466176400    -14.443420895100    -40.951815657300
     200   67  2   0.42380    -33.069864609700    -14.797247168200    -40.277929186100
     201   67  2   0.42380    -34.422826114600    -13.907041872500    -40.486869830800
     202   68  1  -0.84760     -1.002170461000     70.362066372600     55.777894365600
     203   68  2   0.42380     -0.618157955032     70.305798609900     56.699506178800
     204   68  2   0.42380     -1.832834934860     69.807489373300     55.728489065400
     205   69  1  -0.84760    -67.240603966500    -63.397001807400     32.737147356100
     206   69  2   0.42380    -67.532294626800    -63.970442557600     33.502707454800
     207   69  2   0.42380    -67.548864671200    -63.805751938500     31.878137071900
     208   70  1  -0.84760    -41.641323883300    -14.158719471800     38.191115692800
     209   70  2   0.42380    -42.541535037500    -13.740009128900     38.310704683500
     210   70  2   0.42380    -41.414945151400    -14.699453271100     39.001275941100
     211   71  1  -0.84760    -12.187268846500    -60.715955175300     20.840291972800
     212   71  2   0.42380    -12.440012556700    -59.999117546900     20.190473204600
     213   71  2   0.42380    -11.399546599500    -60.415621853900     21.378152138200
     214   72  1  -0.84760     52.417187160500    -50.770616996100     10.419755172900
     215   72  2   0.42380     51.586042295300    -51.238809372400     10.119764986700
     216   72  2   0.42380     52.903681346100    -51.344461135300     11.078561905700
     217   73  1  -0.84760     40.635879818300      5.694520808450     65.195847818600
     218   73  2   0.42380     40.264452547900      6.148825108180     64.386126023200
     219   73  2   0.42380     39.944225624200      5.084509757280     65.582501401700
     220   74  1  -0.84760     -6.791451108310    -22.149737643600     17.596882163300
     221   74  2   0.42380     -7.524111963100    -21.719346026300     18.124111835800
     222   74  2   0.42380     -6.676756630960    -21.666025996400     16.729202372600
     223   75  1  -0.84760     58.962052064400     20.087616406500    -61.167246606600
     224   75  2   0.42380     58.909158366200     19.827318117200    -62.131324952600
     225   75  2   0.42380     58.267064254800     20.779075453100    -60.970075788600
     226   76  1  -0.84760     -6.318404168040    -34.120265124000    -44.598393502500
     227   76  2   0.42380     -6.525168569740    -33.153109278500    -44.746238193500
     228   76  2   0.42380     -7.056702407240    -34.680212500900    -44.974391700800
     229   77  1  -0.84760     42.707385269900    -39.004899586600     15.059486287400
     230   77  2   0.42380     42.153400697900    -39.209059337400     15.866592160300
     231   77  2   0.42380     42.263535678800    -39.381830272500     14.246515932200
     232   78  1  -0.84760     -5.669984000520     26.682790868100    -40.592070505600
     233   78  2   0.42380     -5.805184770540     26.817848322700    -41.573640796400
     234   78  2   0.42380     -4.764753165600     26.289456936400    -40.431304981700
     235   79  1  -0.84760     41.663387447900     15.298848766600    -67.431640778300
     236   79  2   0.42380     40.953130939200     14.605584344500    -67.309492782400
     237   79  2   0.42380     41.279472066200     16.204594863900    -67.252105303100
     238   80  1  -0.84760     -1.053122624020    -56.975111695700    -23.819046046900
     239   80  2   0.42380     -1.554263636830    -56.120511005000    -23.955117149000
     240   80  2   0.42380     -1.136683889810    -57.262196526000    -22.864792508800
     241   81  1  -0.84760    -72.005797734900    -40.656992347500     64.677991729900
     242   81  2   0.42380    -72.243479661518    -39.905152447600     64.062976228700
     243   81  2   0.42380    -72.407895426818    -40.490895229200     65.578396746300
     244   82  1  -0.84760     23.161539766300    -21.882522298200    -23.437972447800
     245   82  2   0.42380     23.964116056500    -21.601136580400    -22.911955930700
     246   82  2   0.42380     22.405391847600    -21.254558914200    -23.253846639600
     247   83  1  -0.84760     58.271753281500     21.435245097700     52.328921780800
     248   83  2   0.42380     57.301041020200     21.197507052400     52.294304912600
     249   83  2   0.42380     58.795705501000     20.776530728200     51.788950067600
     250   84  1  -0.84760     55.982293131700    -66.280312664200     70.843321267400
     251   84  2   0.42380     55.247152989200    -66.957358423800     70.877643421900
     252   84  2   0.42380     56.797350367000    -66.693586040800     70.437258687000
     253   85  1  -0.84760     37.793831344600    -23.799038711100    -32.060923368200
     254   85  2   0.42380     38.045693012100    -24.344539945900    -31.261552300900
     255   85  2   0.42380     37.945324524400    -22.830286187600    -31.864535067700
     256   86  1  -0.84760    -48.336769195700     19.242726842500     10.873817174800
     257   86  2   0.42380    -47.681299453900     19.475713691700     10.155432496800
     258   86  2   0.42380    -48.796070919400     18.385574770800     10.640724376100
     259   87  1  -0.84760     29.235972837800     50.963943325800     -9.716403058280
     260   87  2   0.42380     30.187938849900     50.884517637600    -10.012126361200
     261   87  2   0.42380     28.663097420900     50.360846863500    -10.271460185000
     262   88  1  -0.84760     60.522841118900    -40.055713920100      0.432411190117
     263   88  2   0.42380     59.797118865500    -39.434340998700      0.727746429320
     264   88  2   0.42380     61.173241500300    -39.559256898300     -0.142488600512
     265   89  1  -0.84760     29.991167373700     38.786700487500    -18.999149165100
     266   89  2   0.42380     29.023958536600     38.627408120100    -18.801328521500
     267   89  2   0.42380     30.518890495400     38.727145700300    -18.151823056600
     268   90  1  -0.84760     25.795433803100     30.179308038900     40.243062863100
     269   90  2   0.42380     25.545469339300     30.558442066900     41.134003464800
     270   90  2   0.42380     24.967649785500     30.015077720800     39.706591034700
     271   91  1  -0.84760    -11.078224627700     64.248276048200    -39.335911655200
     272   91  2   0.42380    -11.012809380700     64.021365684600    -38.364195373400
     273   91  2   0.42380    -10.569603500000     65.090095625600    -39.516589123800
     274   92  1  -0.84760     -3.785681050700     16.329488728400    -34.958488515100
     275   92  2   0.42380     -4.591479228240     16.292866880700    -35.549545312200
     276   92  2   0.42380     -3.179560770180     17.062870167300    -35.266335669800
     277   93  1  -0.84760    -70.767933594500     68.833532539400     68.540260874200
     278   93  2   0.42380    -71.656356427000     68.416437437600     68.731928677300
     279   93  2   0.42380    -70.472502911500     68.580098134000     67.619124774700
     280   94  1  -0.84760     41.114730445700     58.657205135700     68.066062782000
     281   94  2   0.42380     41.844259683900     58.013033303200     67.836215570200
     282   94  2   0.42380     40.410680879100     58.187306999200     68.598519305100
     283   95  1  -0.84760    -62.960959697000     61.705707891600     -4.066832324460
     284   95  2   0.42380    -62.451814061000     61.401135039200     -4.871820584530
     285   95  2   0.42380    -63.294237999300     60.909275992900     -3.562231686480
     286   96  1  -0.84760    -32.733529962100    -29.265957675400    -60.637053740400
     287   96  2   0.42380    -33.322965639700    -28.539770534300    -60.283192442400
     288   96  2   0.42380    -33.260156561200    -29.852614066300    -61.252276223900
     289   97  1  -0.84760     -2.759691277900    -63.119490317800     13.522101050700
     290   97  2   0.42380     -2.266847405250    -62.387278780300     13.052025331700
     291   97  2   0.42380     -2.148412567150    -63.899242091700     13.657472793700
     292   98  1  -0.84760     68.090781566300     16.324462947500    -63.134582941500
     293   98  2   0.42380     68.807699173100     16.664544938300    -63.743166037300
     294   98  2   0.42380     67.659738180600     15.520364994700    -63.544007027100
     295   99  1  -0.84760    -28.333232937700    -33.834728063300     22.249999658400
     296   99  2   0.42380    -27.415558639200    -33.576807404700     21.947756683800
     297   99  2   0.42380    -28.387455289800    -34.829238020100     22.339497604900
     298  100  1  -0.84760    -62.947428679800      3.944128961090    -13.662239909100
     299  100  2   0.42380    -63.805175307100      3.887933845900    -14.173231917200
     300  100  2   0.42380    -62.519524121300      3.040920091230    -13.628901849100
     301  101  1  -0.84760    -56.689921425900    -19.738309951000     23.121964339800
     302  101  2   0.42380    -57.681148785300    -19.608285532700     23.098258378800
     303  101  2   0.42380    -56.262198941700    -18.957920101700     23.578084016700
     304  102  1  -0.84760    -13.820298826100    -40.347320360800      1.320147426070
     305  102  2   0.42380    -14.337263357500    -39.838094987500      0.632079702310
     306  102  2   0.42380    -14.311539416200    -41.186822940300      1.552350142530
     307  103  1  -0.84760    -65.575696640800    -55.456438756800    -10.331085776500
     308  103  2   0.42380    -64.773500070100    -55.268984679600    -10.897955806600
     309  103  2   0.42380    -66.183688383400    -56.087922836100    -10.812307033900
     310  104  1  -0.84760    -63.680661733200    -53.261271824500     37.526778039400
     311  104  2   0.42380    -64.055262959100    -53.682473467300     38.352770229200
     312  104  2   0.42380    -64.405434412400    -52.767349144100     37.046418851700
     313  105  1  -0.84760     -2.261609328340     53.751064049900     23.110404502300
     314  105  2   0.42380     -1.708954067880     54.276307811600     23.757467987500
     315  105  2   0.42380     -3.135199045400     53.512853232100     23.534782414700
     316  106  1  -0.84760    -52.545796065500     51.537503088400    -47.615331800200
     317  106  2   0.42380    -52.948079481700     51.633028265600    -48.525849781100
     318  106  2   0.42380    -51.906637650400     52.289205680900    -47.452790320100
     319  107  1  -0.84760     63.471648792200    -64.384392303100    -29.536527963200
     320  107  2   0.42380     63.672219666000    -65.294876484300    -29.898176798900
     321  107  2   0.42380     62.513049813400    -64.341283161100    -29.255050433400
     322  108  1  -0.84760    -45.076891105400    -49.855088508900     65.345554922400
     323  108  2   0.42380    -44.258681498300    -49.301583435100     65.190103411600
     324  108  2   0.42380    -45.272574539500    -49.892793158900     66.325496937500
     325  109  1  -0.84760     56.579208182600     37.391554029200    -57.129936074600
     326  109  2   0.42380     57.260011535600     37.366504435900    -57.861973855300
     327  109  2   0.42380     55.756807432700     36.903795621900    -57.422764937200
     328  110  1  -0.84760     60.104597417100    -34.953351747200     46.123925722700
     329  110  2   0.42380     60.012059925200    -34.656958484400     45.173353344400
     330  110  2   0.42380     59.605511722000    -34.323846184600     46.719439127600
     331  111  1  -0.84760     55.786042387100     60.547271110400     34.826192648700
     332  111  2   0.42380     55.432361027600     60.022017536200     34.052230001900
     333  111  2   0.42380     55.153895002500     60.471270108700     35.597304528900
     334  112  1  -0.84760    -27.759220639200    -67.041228586300    -68.211289698900
     335  112  2   0.42380    -27.978612876800    -66.221014725500    -68.739604253500
     336  112  2   0.42380    -27.313704143900    -66.777383835400    -67.355777571600
     337  113  1  -0.84760    -10.581002914200     28.971187536800    -15.683309249700
     338  113  2   0.42380     -9.926095266120     28.644821414300    -15.001707366900
     339  113  2   0.42380    -11.455876241400     28.504030531300    -15.555399149600
     340  114  1  -0.84760     47.503662902700     60.545667402900    -47.202709825700