LAMMPS Atom File

         4500 atoms
         3000 bonds
         1500 angles
           0 dihedrals
           0 impropers

           2 atom types
           1 bond types
           1 angle types

         0.0  964.577707225 xlo xhi
         0.0  964.577707225 ylo yhi
         0.0  964.577707225 zlo zhi

Masses

         1   15.9994
         2   1.00794

Atoms

       1    1  1  -0.84760   -279.720638789000    148.251288830000   -308.859943961000
       2    1  2   0.42380   -278.922440114000    148.649641373000   -308.408065518000
       3    1  2   0.42380   -280.039703781000    148.869119350000   -309.578611464000
       4    2  1  -0.84760   -420.254485472000   -334.291943230000   -188.557089472000
       5    2  2   0.42380   -419.579093846000   -334.909902179000   -188.154630917000
       6    2  2   0.42380   -420.626781426000   -334.701788566000   -189.389809427000
       7    3  1  -0.84760   -192.509143734000    291.398569824000    -59.795347348700
       8    3  2   0.42380   -192.836653580000    292.335834970000    -59.914810092500
       9    3  2   0.42380   -193.290590453000    290.777361181000    -59.736688617200
      10    4  1  -0.84760    398.368255557000   -276.965371159000    156.024768466000
      11    4  2   0.42380    399.321151742000   -276.829133129000    156.295744592000
      12    4  2   0.42380    397.838334483000   -276.146876948000    156.246693864000
      13    5  1  -0.84760    -21.933986672800    241.683340524000   -189.718721187000
      14    5  2   0.42380    -22.199198747800    242.623427241000   -189.504479455000
      15    5  2   0.42380    -21.354334956800    241.678012934000   -190.533568108000
      16    6  1  -0.84760   -157.567127784000   -353.604046975000    190.639015088000
      17    6  2   0.42380   -157.528779351000   -354.027886193000    191.543940341000
      18    6  2   0.42380   -156.901994901000   -354.044648747000    190.036131745000
      19    7  1  -0.84760   -373.232362770000   -159.974358326000    450.505790100000
      20    7  2   0.42380   -372.585661091000   -160.563697227000    450.021582915000
      21    7  2   0.42380   -374.162214811000   -160.176622937000    450.198439798000
      22    8  1  -0.84760    481.381545732000    416.786348216000   -336.106811854000
      23    8  2   0.42380    481.517583558000    416.846892180000   -335.117959925000
      24    8  2   0.42380    480.411430981000    416.641606058000   -336.301560609000
      25    9  1  -0.84760   -281.266385315000     19.000153238800    443.439629915000
      26    9  2   0.42380   -281.633163254000     18.700850625100    442.558782658000
      27    9  2   0.42380   -280.314546278000     18.704837410400    443.522037490000
      28   10  1  -0.84760   -222.067653015000   -439.678905571000     26.597593437700
      29   10  2   0.42380   -222.092646482000   -440.676016347000     26.669325074500
      30   10  2   0.42380   -222.994663438000   -439.314896144000     26.687864205800
      31   11  1  -0.84760    -10.194915594700    230.141446228000    275.822431953000
      32   11  2   0.42380    -10.776295665200    230.887994270000    276.145948930000
      33   11  2   0.42380    -10.676253492200    229.627979468000    275.112033674000
      34   12  1  -0.84760   -301.983267961000    232.505360535000    369.975403199000
      35   12  2   0.42380   -302.326489148000    231.663418787000    369.559070028000
      36   12  2   0.42380   -301.007708715000    232.601308109000    369.777721080000
      37   13  1  -0.84760   -371.177551936000    367.415640565000    198.424827146000
      38   13  2   0.42380   -371.498080088000    367.340139265000    197.480601930000
      39   13  2   0.42380   -370.795372302000    366.539345708000    198.718163218000
      40   14  1  -0.84760    230.045540817000     65.978499102700    408.643447917000
      41   14  2   0.42380    230.029123494000     66.439137327800    409.530884054000
      42   14  2   0.42380    229.229791424000     66.229637386500    408.122408100000
      43   15  1  -0.84760   -179.044069507000   -376.772468595000    -80.140712092200
      44   15  2   0.42380   -178.905513262000   -376.519913691000    -81.098322758000
      45   15  2   0.42380   -178.213015321000   -376.575676598000    -79.620498819000
      46   16  1  -0.84760    476.535547802000    211.392897714000    -65.540088073900
      47   16  2   0.42380    476.296590112000    211.206850646000    -66.493128319900
      48   16  2   0.42380    477.505809204000    211.198616908000    -65.395700469300
      49   17  1  -0.84760     43.185961899000     50.829968744000    362.796198733000
      50   17  2   0.42380     43.675390974000     51.611282643500    363.183507100000
      51   17  2   0.42380     43.071138496000     50.963271783100    361.811797450000
      52   18  1  -0.84760   -262.947133060000     90.455630850700    113.932608477000
      53   18  2   0.42380   -263.529080793000     91.015008815900    114.522890722000
      54   18  2   0.42380   -263.125668583000     90.683974243300    112.975537758000
      55   19  1  -0.84760    239.206028885000    -67.959259704500    402.668125171000
      56   19  2   0.42380    239.150691597000    -67.655685961100    401.716925525000
      57   19  2   0.42380    240.133501547000    -68.278542736400    402.862683149000
      58   20  1  -0.84760    -79.930774187500      1.207487923910   -104.390727007000
      59   20  2   0.42380    -79.007842032100      1.592193052920   -104.404805365000
      60   20  2   0.42380    -79.883613838300      0.236516549232   -104.156226493000
      61   21  1  -0.84760   -246.656080726000    436.593011208000    283.116151622000
      62   21  2   0.42380   -245.710964344000    436.533110760000    282.794955481000
      63   21  2   0.42380   -247.275248839000    436.304638957000    282.385759746000
      64   22  1  -0.84760    170.689723829000   -163.844926403000   -472.513195266000
      65   22  2   0.42380    171.278908502000   -163.038949425000   -472.456076688000
      66   22  2   0.42380    170.273478192000   -163.889835741000   -473.421337723000
      67   23  1  -0.84760   -385.290940032000    265.765234274000   -323.575703501000
      68   23  2   0.42380   -386.263266418000    265.581510793000   -323.720019408000
      69   23  2   0.42380   -385.125350998000    266.749646699000   -323.634969437000
      70   24  1  -0.84760   -295.192932429000   -328.844266914000    466.433982371000
      71   24  2   0.42380   -294.833675677000   -328.586157218000    467.330817903000
      72   24  2   0.42380   -296.188231816000   -328.747424524000    466.433155930000
      73   25  1  -0.84760    344.021477791000   -255.231047318000    218.162894330000
      74   25  2   0.42380    344.121627583000   -256.007937400000    218.784514648000
      75   25  2   0.42380    343.535903351000   -255.523720695000    217.339146943000
      76   26  1  -0.84760   -132.128933388000   -155.668858887000   -311.098665851000
      77   26  2   0.42380   -131.835576259000   -156.552100230000   -311.464488657000
      78   26  2   0.42380   -132.356280318000   -155.054165764000   -311.853957675000
      79   27  1  -0.84760    230.681686474000    236.875545639000     42.034485577400
      80   27  2   0.42380    231.121377613000    237.565659630000     42.609302401200
      81   27  2   0.42380    231.309724399000    236.597951298000     41.307498819100
      82   28  1  -0.84760    161.220780001000    -29.453258898500     11.250365617200
      83   28  2   0.42380    161.931376283000    -28.767749047800     11.408887443200
      84   28  2   0.42380    160.495959479000    -29.057701909800     10.686300125500
      85   29  1  -0.84760   -158.334644111000    186.000468431000    -90.104948727800
      86   29  2   0.42380   -157.748619968000    186.761328780000    -89.826260312300
      87   29  2   0.42380   -158.012503826000    185.633998033000    -90.977831929700
      88   30  1  -0.84760     14.125908821900    334.007047463000    -59.816238670900
      89   30  2   0.42380     15.102489450200    333.792341839000    -59.802390515600
      90   30  2   0.42380     13.677869048100    333.571947453000    -59.035246774300
      91   31  1  -0.84760    -74.893815022100   -426.543572986000   -347.229207169000
      92   31  2   0.42380    -75.045776974800   -426.817270559000   -348.178942502000
      93   31  2   0.42380    -73.941559791100   -426.719732414000   -346.979852340000
      94   32  1  -0.84760    366.918671412000     97.642985266500    229.871302984000
      95   32  2   0.42380    367.892322802000     97.773859963500    229.684555069000
      96   32  2   0.42380    366.380588955000     98.033131587200    229.124139603000
      97   33  1  -0.84760     75.697563480300    475.161097603000    166.363407406000
      98   33  2   0.42380     75.100564404500    475.745423317000    165.813720620000
      99   33  2   0.42380     75.685222687800    475.472068475000    167.313746726000
     100   34  1  -0.84760   -355.620495480000   -241.717815497000   -220.071601465000
     101   34  2   0.42380   -356.466134740000   -242.244150355000   -219.982911783000
     102   34  2   0.42380   -355.189430881000   -241.925094830000   -220.949791984000
     103   35  1  -0.84760   -197.961169501000   -201.946095918000   -239.932676238000
     104   35  2   0.42380   -197.081171762000   -202.330272850000   -239.653369838000
     105   35  2   0.42380   -198.695150998000   -202.379720213000   -239.409951519000
     106   36  1  -0.84760   -314.258189158000    237.626624403000    200.790679299000
     107   36  2   0.42380   -314.937798830000    237.961383346000    201.443417489000
     108   36  2   0.42380   -314.288967064000    236.627557791000    200.760370475000
     109   37  1  -0.84760    237.946046870000   -375.181340087000   -298.760495138000
     110   37  2   0.42380    237.177883783000   -375.673153067000   -299.170428626000
     111   37  2   0.42380    237.611420408000   -374.597541199000   -298.020762761000
     112   38  1  -0.84760      2.075748066490    221.676061380000    454.064744651000
     113   38  2   0.42380      2.483304603550    220.900044006000    453.583397889000
     114   38  2   0.42380      2.469203451960    221.743505553000    454.981611132000
     115   39  1  -0.84760    203.567593717000    111.474263535000    -23.345060664500
     116   39  2   0.42380    204.213769705000    110.758472841000    -23.609825230800
     117   39  2   0.42380    203.976239184000    112.045535373000    -22.633261977900
     118   40  1  -0.84760   -460.471625856000   -440.143545784000   -340.632943485000
     119   40  2   0.42380   -459.872390019000   -440.153016744000   -341.433460014000
     120   40  2   0.42380   -460.458756766000   -439.233926863000   -340.217699213000
     121   41  1  -0.84760     87.699011094400    356.885083212000   -456.808596123000
     122   41  2   0.42380     88.175635619800    356.012991764000   -456.919436404000
     123   41  2   0.42380     87.647447458700    357.115601658000   -455.836895327000
     124   42  1  -0.84760    177.296407896000    355.749917761000    453.116893744000
     125   42  2   0.42380    177.259690240000    355.231269019000    453.971092372000
     126   42  2   0.42380    176.857429131000    355.223926726000    452.388449460000
     127   43  1  -0.84760   -270.637326465000   -321.051386069000    375.012421642000
     128   43  2   0.42380   -270.611737907000   -320.507301440000    374.173781587000
     129   43  2   0.42380   -270.681133847000   -322.022633311000    374.778413722000
     130   44  1  -0.84760    387.260391818000   -366.560355247000   -330.810235468000
     131   44  2   0.42380    386.425763536000   -366.629579847000   -331.356681792000
     132   44  2   0.42380    387.094728837000   -365.967189422000   -330.022383908000
     133   45  1  -0.84760   -281.506431697000     36.324289402100   -238.739531281000
     134   45  2   0.42380   -280.937322325000     36.681531741400   -237.998928531000
     135   45  2   0.42380   -281.744686294000     35.372301818500   -238.547296041000
     136   46  1  -0.84760   -169.960912728000     41.073506617800   -303.884594053000
     137   46  2   0.42380   -170.062939177000     41.597113886100   -303.038765446000
     138   46  2   0.42380   -169.794845435000     40.112452909700   -303.663692663000
     139   47  1  -0.84760    123.212344399000    214.879361113000    312.242858986000
     140   47  2   0.42380    123.611926437000    215.504487598000    311.572373287000
     141   47  2   0.42380    123.937167495000    214.333054578000    312.662597772000
     142   48  1  -0.84760    -17.034404439700    281.488351715000    131.784391233000
     143   48  2   0.42380    -18.017204518300    281.315762952000    131.850096060000
     144   48  2   0.42380    -16.587785719300    281.198625853000    132.630908004000
     145   49  1  -0.84760    206.665756673000   -324.053693354000    271.474791669000
     146   49  2   0.42380    206.752375426000   -324.371227628000    270.530509308000
     147   49  2   0.42380    206.738735425000   -324.833406535000    272.096660994000
     148   50  1  -0.84760    286.283106648000   -302.571177569000   -438.475495294000
     149   50  2   0.42380    286.945616003000   -303.287052332000   -438.695959981000
     150   50  2   0.42380    285.372110471000   -302.974778220000   -438.390686802000
     151   51  1  -0.84760    -94.751534879200     48.701639729900   -466.968835127000
     152   51  2   0.42380    -95.225293584700     49.002018314900   -466.140991305000
     153   51  2   0.42380    -93.985256515300     49.316295041500   -467.155961600000
     154   52  1  -0.84760   -310.795764473000    132.966454316000   -134.955647321000
     155   52  2   0.42380   -311.496996523000    132.319538155000   -134.656025738000
     156   52  2   0.42380   -310.485370609000    133.507304819000   -134.173895198000
     157   53  1  -0.84760    272.658681708000    396.033909946000    378.702866846000
     158   53  2   0.42380    271.951145562000    396.243513397000    379.377743868000
     159   53  2   0.42380    272.237497719000    395.619410879000    377.896148450000
     160   54  1  -0.84760    225.969023606000    -70.550234978900    -58.463971856500
     161   54  2   0.42380    225.521858428000    -71.290884062800    -57.962491809500
     162   54  2   0.42380    226.002810979000    -70.779289051300    -59.436798997000
     163   55  1  -0.84760   -248.270728973000   -163.477212249000    120.538108660000
     164   55  2   0.42380   -248.548325301000   -163.694568403000    119.602322049000
     165   55  2   0.42380   -247.272614011000   -163.481914508000    120.599300244000
     166   56  1  -0.84760   -124.740216411000    -97.793491817900     47.375644035100
     167   56  2   0.42380   -125.130233776000    -98.650366301700     47.712768009400
     168   56  2   0.42380   -123.782095014000    -97.730684224000     47.655033716600
     169   57  1  -0.84760    468.420516401000   -131.011523657000   -155.100790099000
     170   57  2   0.42380    467.460623173000   -130.747303763000   -155.007019965000
     171   57  2   0.42380    468.982688606000   -130.191796479000   -155.210379186000
     172   58  1  -0.84760   -195.161979149000   -148.412161133000    447.714549015000
     173   58  2   0.42380   -195.768612039000   -148.835852677000    447.041881183000
     174   58  2   0.42380   -194.907195385000   -149.088115478000    448.406048080000
     175   59  1  -0.84760    108.017205038000    217.293786142000    239.016235561000
     176   59  2   0.42380    107.339262913000    217.896709267000    238.595666683000
     177   59  2   0.42380    108.557218034000    217.811210018000    239.680056694000
     178   60  1  -0.84760   -205.047072031000    180.478446478000    397.848361781000
     179   60  2   0.42380   -206.011889163000    180.532597382000    397.591076763000
     180   60  2   0.42380   -204.820184197000    181.241451837000    398.453625966000
     181   61  1  -0.84760   -349.253924980000    -31.865778327700    -31.933651924300
     182   61  2   0.42380   -348.432624695000    -31.654426708700    -31.403749731100
     183   61  2   0.42380   -349.271017347000    -32.842709773800    -32.146519960000
     184   62  1  -0.84760    -20.977585457400    426.301001228000    349.804939758000
     185   62  2   0.42380    -21.161547587500    425.393331992000    349.427720336000
     186   62  2   0.42380    -20.583473129200    426.208335399000    350.719318518000
     187   63  1  -0.84760   -237.479867437000   -466.542822953000    -50.646082517100
     188   63  2   0.42380   -238.288309504000   -467.102768952000    -50.464748842200
     189   63  2   0.42380   -237.760847971000   -465.600085536000    -50.825793681900
     190   64  1  -0.84760   -270.479383745000   -464.513969105000     93.026588056300
     191   64  2   0.42380   -271.043318541000   -465.050419090000     92.398735398700
     192   64  2   0.42380   -270.401212472000   -464.996098137000     93.899193837100
     193   65  1  -0.84760   -187.942500778000    388.775623121000   -392.059079120000
     194   65  2   0.42380   -188.894965363000    388.539023492000   -392.250995324000
     195   65  2   0.42380   -187.574241469000    389.315737175000   -392.815823390000
     196   66  1  -0.84760   -272.321628355000    200.527770060000   -315.328887057000
     197   66  2   0.42380   -272.217740137000    199.624644355000   -314.912268289000
     198   66  2   0.42380   -272.850039810000    201.117700557000   -314.718343576000
     199   67  1  -0.84760   -211.433957594000    -85.675549219400   -271.462568094000
     200   67  2   0.42380   -211.716371538000    -86.533571487400   -271.033569082000
     201   67  2   0.42380   -210.960347016000    -85.872205957200   -272.321066287000
     202   68  1  -0.84760    -10.778466153600    480.438428109000    385.810012562000
     203   68  2   0.42380    -10.394453647700    480.382160346000    386.731624375000
     204   68  2   0.42380    -11.609130627500    479.883851110000    385.760607261000
     205   69  1  -0.84760   -450.179013626000   -429.018901194000    215.370606652000
     206   69  2   0.42380   -449.194185797000   -428.878116977000    215.472065767000
     207   69  2   0.42380   -450.544832997000   -429.429387430000    216.205877409000
     208   70  1  -0.84760   -288.369288146000    -84.537042837500    253.084024939000
     209   70  2   0.42380   -287.897019951000    -84.016046338400    252.373021845000
     210   70  2   0.42380   -288.514831944000    -85.474877710500    252.768933280000
     211   71  1  -0.84760    -65.666750520200   -385.886273674000    116.230795857000
     212   71  2   0.42380    -65.923108230700   -385.974145960000    117.193375301000
     213   71  2   0.42380    -65.846052451900   -384.952184189000    115.922044093000
     214   72  1  -0.84760    356.336047743000   -351.173424035000     75.070702691100
     215   72  2   0.42380    356.357278014000   -350.725489183000     74.176888592200
     216   72  2   0.42380    356.067186419000   -350.510502643000     75.769450725900
     217   73  1  -0.84760    291.221489143000     18.485785176700    426.009988508000
     218   73  2   0.42380    290.762799989000     18.545133557200    425.123375836000
     219   73  2   0.42380    291.103943784000     19.347033700800    426.504391247000
     220   74  1  -0.84760    -25.898977208200   -147.948962855000    138.844098162000
     221   74  2   0.42380    -26.631638063000   -147.518571237000    139.371327835000
     222   74  2   0.42380    -25.784282730800   -147.465251207000    137.976418371000
     223   75  1  -0.84760    406.368583453000    131.247011253000   -402.218632268000
     224   75  2   0.42380    407.362922245000    131.232060081000   -402.323831267000
     225   75  2   0.42380    406.076377313000    132.162566321000   -401.942272921000
     226   76  1  -0.84760    -27.986374328000   -241.393848778000   -335.104913777000
     227   76  2   0.42380    -28.477755116700   -241.512758094000   -335.967703146000
     228   76  2   0.42380    -28.345368988200   -240.593697599000   -334.624413076000
     229   77  1  -0.84760    268.042943378000   -263.186334195000     98.378070516000
     230   77  2   0.42380    267.513970451000   -263.091099868000     99.221348682600
     231   77  2   0.42380    269.008831669000   -263.314381642000     98.603156410900
     232   78  1  -0.84760    -44.722860835100    162.361293615000   -272.973403169000
     233   78  2   0.42380    -45.624186506300    162.449425299000   -272.549321997000
     234   78  2   0.42380    -44.326976446200    161.474817485000   -272.733745869000
     235   79  1  -0.84760    283.212066442000    107.229156602000   -449.020979080000
     236   79  2   0.42380    283.399288795000    106.357992707000   -448.567083433000
     237   79  2   0.42380    283.572694678000    107.978573032000   -448.465711316000
     238   80  1  -0.84760     -9.396211053950   -378.133469091000   -160.466643774000
     239   80  2   0.42380     -8.968565315160   -377.350521623000   -160.014855787000
     240   80  2   0.42380     -8.892913388230   -378.966537846000   -160.237105305000
     241   81  1  -0.84760   -477.122824698000   -264.703991663000    444.387828598000
     242   81  2   0.42380   -476.674278350000   -264.504197944000    445.258970747000
     243   81  2   0.42380   -476.518557262000   -265.265937239000    443.822958670000
     244   82  1  -0.84760    155.712119463000   -145.034185024000   -159.590663829000
     245   82  2   0.42380    154.810215171000   -144.804411298000   -159.224914348000
     246   82  2   0.42380    155.932341269000   -144.417436554000   -160.346391082000
     247   83  1  -0.84760    376.177786860000    143.980053607000    363.841719250000
     248   83  2   0.42380    375.693551747000    143.639569870000    364.647688965000
     249   83  2   0.42380    375.533320829000    144.452616171000    363.240596835000
     250   84  1  -0.84760    398.267114032000   -466.641693798000    463.080814900000
     251   84  2   0.42380    398.846750462000   -467.406155791000    462.798645676000
     252   84  2   0.42380    398.349728670000   -465.898125828000    462.417277791000
     253   85  1  -0.84760    240.531891211000   -163.462088297000   -215.480060739000
     254   85  2   0.42380    240.531244338000   -164.291854286000   -214.921949652000
     255   85  2   0.42380    239.591288099000   -163.150779307000   -215.615532131000
     256   86  1  -0.84760   -320.712833598000    132.913504139000     71.404480171100
     257   86  2   0.42380   -320.440430053000    132.034800431000     71.012464734900
     258   86  2   0.42380   -320.336947395000    132.997650190000     72.327317645500
     259   87  1  -0.84760    188.729005202000    328.166774336000    -88.607296762200
     260   87  2   0.42380    189.621750940000    328.317842097000    -88.182816397200
     261   87  2   0.42380    188.668720620000    328.695543576000    -89.453918791500
     262   88  1  -0.84760    422.625232808000   -286.323974011000      8.430220706250
     263   88  2   0.42380    421.736473353000   -286.689160110000      8.707250929170
     264   88  2   0.42380    422.505359020000   -285.713330994000      7.647440161740
     265   89  1  -0.84760    192.168688644000    268.635781477000   -136.591619138000
     266   89  2   0.42380    192.086802350000    268.440768724000   -135.614242721000
     267   89  2   0.42380    192.531698692000    269.558951141000   -136.718037005000
     268   90  1  -0.84760    170.835687447000    210.174307874000    269.789395731000
     269   90  2   0.42380    170.188799917000    209.573877635000    270.259523428000
     270   90  2   0.42380    171.118967761000    210.907904785000    270.407123693000
     271   91  1  -0.84760    -76.692194309400    438.212127646000   -267.933049032000
     272   91  2   0.42380    -76.781045654300    438.076027676000   -266.946346322000
     273   91  2   0.42380    -75.762255479700    437.980946709000   -268.219002083000
     274   92  1  -0.84760     -9.637167483790    102.533577214000   -210.455417368000
     275   92  2   0.42380    -10.442965661300    102.496955366000   -211.046474165000
     276   92  2   0.42380     -9.031047203270    103.266958653000   -210.763264523000
     277   93  1  -0.84760   -479.408526919000    446.389527898000    457.940627022000
     278   93  2   0.42380   -479.946537805000    446.660370738000    458.738867865000
     279   93  2   0.42380   -479.010675774000    445.485658578000    458.097899773000
     280   94  1  -0.84760    275.636328352000    393.409132369000    457.452502859000
     281   94  2   0.42380    276.087360001000    394.265983032000    457.202748193000
     282   94  2   0.42380    275.979413565000    392.670429042000    456.872321912000
     283   95  1  -0.84760   -418.658736329000    435.028417506000    -84.801653302100
     284   95  2   0.42380   -418.845910841000    436.000611128000    -84.942384478400
     285   95  2   0.42380   -419.522478969000    434.528772803000    -84.736049778200
     286   96  1  -0.84760   -222.252369315000   -193.491520700000   -405.775714990000
     287   96  2   0.42380   -222.342055276000   -192.626129867000   -405.282708769000
     288   96  2   0.42380   -223.107010484000   -194.005830740000   -405.704485399000
     289   97  1  -0.84760    -18.633137957400   -416.480096910000    104.963656945000
     290   97  2   0.42380    -19.238345244800   -415.986278293000    104.339263389000
     291   97  2   0.42380    -18.999031709100   -417.396199368000    105.127602205000
     292   98  1  -0.84760    448.919484081000    122.765733449000   -413.248943060000
     293   98  2   0.42380    449.852856621000    122.909607576000   -413.577752940000
     294   98  2   0.42380    448.594256172000    123.595496987000   -412.795380189000
     295   99  1  -0.84760   -169.763126287000   -200.880162940000    151.281263461000
     296   99  2   0.42380   -168.845451989000   -200.622242281000    150.979020487000
     297   99  2   0.42380   -169.817348639000   -201.874672897000    151.370761408000
     298  100  1  -0.84760   -418.872493163000     25.818556331100    -98.872960381600
     299  100  2   0.42380   -418.921269517000     26.445482493000    -98.095410090900
     300  100  2   0.42380   -417.923559281000     25.739512997700    -99.178372625100
     301  101  1  -0.84760   -388.871157590000   -143.438776367000    169.610150363000
     302  101  2   0.42380   -388.635122113000   -144.376450062000    169.865209758000
     303  101  2   0.42380   -388.043375230000   -142.949732163000    169.335173762000
     304  102  1  -0.84760    -84.584275137300   -269.013116031000      0.752875892089
     305  102  2   0.42380    -84.862063599700   -269.873193654000      0.324973973528
     306  102  2   0.42380    -85.108757013700   -268.259273905000      0.357097152012
     307  103  1  -0.84760   -445.419380481000   -380.335883127000    -67.635941787200
     308  103  2   0.42380   -445.661402106000   -380.852077738000    -68.457506547800
     309  103  2   0.42380   -445.944317008000   -380.681792311000    -66.858260310900
     310  104  1  -0.84760   -415.795272579000   -352.608008126000    252.647946317000
     311  104  2   0.42380   -415.159931498000   -353.330219751000    252.921354584000
     312  104  2   0.42380   -415.281457593000   -351.836573917000    252.272601915000
     313  105  1  -0.84760     -9.158087933570    366.383507812000    155.379719221000
     314  105  2   0.42380     -9.291819090330    366.271874926000    156.364429370000
     315  105  2   0.42380     -8.398853930080    365.806377437000    155.078913207000
     316  106  1  -0.84760   -339.199977132000    339.357701166000   -285.212255328000
     317  106  2   0.42380   -338.704506021000    340.064269040000   -284.707012597000
     318  106  2   0.42380   -340.122374662000    339.682379608000   -285.421460267000
     319  107  1  -0.84760    415.781837600000   -435.874651806000   -194.040382108000
     320  107  2   0.42380    414.782106441000   -435.853899444000   -194.030040489000
     321  107  2   0.42380    416.094830814000   -436.502937875000   -194.752626352000
     322  108  1  -0.84760   -298.905451165000   -332.101923749000    436.826320489000
     323  108  2   0.42380   -298.505609063000   -332.928940526000    437.221503415000
     324  108  2   0.42380   -299.892191354000   -332.098418068000    436.988590355000
     325  109  1  -0.84760    375.722648011000    239.936447039000   -376.473106668000
     326  109  2   0.42380    376.530015241000    239.427587706000   -376.771804400000
     327  109  2   0.42380    375.527578940000    239.720390969000   -375.516410356000
     328  110  1  -0.84760    397.968281907000   -221.620448406000    288.460050372000
     329  110  2   0.42380    397.232416110000   -221.299953868000    287.863573399000
     330  110  2   0.42380    398.319768843000   -220.853694836000    288.997215056000
     331  111  1  -0.84760    359.081598807000    425.073819403000    226.761892386000
     332  111  2   0.42380    358.684707624000    425.392764691000    227.622561481000
     333  111  2   0.42380    359.028938131000    424.076082861000    226.720075575000
     334  112  1  -0.84760   -160.808644389000   -458.401767922000   -469.564388805000
     335  112  2   0.42380   -161.012229704000   -457.795991160000   -468.795241527000
     336  112  2   0.42380   -160.882423569000   -457.889999236000   -470.420338246000
     337  113  1  -0.84760    -67.618986277400    191.751007559000   -116.549284279000
     338  113  2   0.42380    -67.534864284000    192.279193367000   -117.394235901000
     339  113  2   0.42380    -66.708506985300    191.496901004000   -116.223006303000
     340  114  1  -0.84760    340.186181012000    407.489984001000   -294.046978368000