LAMMPS Atom File

         4500 atoms
         3000 bonds
         1500 angles
           0 dihedrals
           0 impropers

           2 atom types
           1 bond types
           1 angle types

         0.0  35.476317816 xlo xhi
         0.0  35.476317816 ylo yhi
         0.0  35.476317816 zlo zhi

Masses

         1   15.9994
         2   1.00794

Atoms

       1    1  1  -0.84760    -15.442823955600      1.283252057300     16.092304444100
       2    1  2   0.42380    -14.742880691400      1.168668105190     15.387357676600
       3    1  2   0.42380    -15.437462007500      0.488781997438     16.699584094200
       4    2  1  -0.84760    -17.133796405300    -10.904370842600     -9.340993057550
       5    2  2   0.42380    -17.049612230000    -11.094705711600     -8.362889963670
       6    2  2   0.42380    -16.383106438300    -11.346025699900     -9.832323455940
       7    3  1  -0.84760     -8.748624641280     15.300434262500     -6.186924265920
       8    3  2   0.42380     -8.979192368380     15.583719112700     -7.117831466910
       9    3  2   0.42380     -9.573932439430     15.307575365300     -5.622286290790
      10    4  1  -0.84760     -0.163716559228     10.937095434500     -9.324244965750
      11    4  2   0.42380     -0.319138682340     11.524752575200     -8.530202744840
      12    4  2   0.42380     -0.899694526060     10.263227819200     -9.389351566330
      13    5  1  -0.84760     -4.730147343850    -11.693626164500      5.104884960010
      14    5  2   0.42380     -4.069558451810    -12.386734858300      5.393368329220
      15    5  2   0.42380     -5.324609675650    -12.074145602900      4.396492771260
      16    6  1  -0.84760    -12.881812935900     -4.185731814570    -16.064430631100
      17    6  2   0.42380    -12.737550347100     -4.904979307570    -16.744041806200
      18    6  2   0.42380    -13.024490761700     -4.600205660820    -15.165623383300
      19    7  1  -0.84760     17.331638310000     16.617825787800    -13.415356890600
      20    7  2   0.42380     16.940042470400     16.706400667600    -14.331221066700
      21    7  2   0.42380     16.710633073900     16.088735196000    -12.837070073900
      22    8  1  -0.84760    -11.941542124900     -0.316995331637     10.664767798800
      23    8  2   0.42380    -11.112778740000     -0.449220252417     11.208521256000
      24    8  2   0.42380    -12.616570212200      0.187340901326     11.203267608900
      25    9  1  -0.84760     -7.068168135550    -17.265666061100      3.447183795530
      26    9  2   0.42380     -7.441986387460    -18.185563775631      3.565708516110
      27    9  2   0.42380     -7.722101995620    -16.702711632600      2.941760390820
      28   10  1  -0.84760     -2.631776571810      8.358730553320      8.176804840440
      29   10  2   0.42380     -2.122596968640      8.022694194700      7.384456623180
      30   10  2   0.42380     -3.348367196500      8.985657945730      7.871092686190
      31   11  1  -0.84760    -12.889396266000      3.061936131210     15.011539998100
      32   11  2   0.42380    -13.819236979100      3.317604403920     15.276171784800
      33   11  2   0.42380    -12.706941080500      3.383523369860     14.082405049200
      34   12  1  -0.84760    -14.395927572000     13.108832369200      8.621802573870
      35   12  2   0.42380    -14.103202902900     14.012549582500      8.934224510550
      36   12  2   0.42380    -13.666736085700     12.691225928500      8.079691296540
      37   13  1  -0.84760      5.484571324690      1.317044039030     14.782334499500
      38   13  2   0.42380      5.964567459360      1.168822101910     13.917676203900
      39   13  2   0.42380      5.175241808830      0.438654140787     15.146678344300
      40   14  1  -0.84760     -8.041849562390    -14.180753556200     -1.939706343020
      41   14  2   0.42380     -8.305058331550    -14.856910487300     -1.251569039540
      42   14  2   0.42380     -7.580686205910    -14.639996954500     -2.698932172280
      43   15  1  -0.84760    -16.195305745500      4.769811022820      2.598183742960
      44   15  2   0.42380    -16.115175596400      4.833970117050      1.603466310810
      45   15  2   0.42380    -16.434230609800      3.832964960570      2.853593932390
      46   16  1  -0.84760      1.685163667050      0.431888151930     13.263239904900
      47   16  2   0.42380      1.714266673330     -0.350454493012     13.885407889400
      48   16  2   0.42380      0.809183474288      0.441835852107     12.780995418000
      49   17  1  -0.84760     -6.962420476400      9.711862313990      4.438990386610
      50   17  2   0.42380     -7.465128317670      9.142769912590      5.089696668280
      51   17  2   0.42380     -5.980014343860      9.574828040600      4.565875368630
      52   18  1  -0.84760      9.559193105270     -2.728810019380     14.625046792800
      53   18  2   0.42380      9.679970203570     -3.507117049990     15.241205099300
      54   18  2   0.42380     10.262989861400     -2.753403848040     13.915071251200
      55   19  1  -0.84760     -3.738922435110      1.853928761910     -3.864649529660
      56   19  2   0.42380     -3.874853125560      1.342142072980     -4.712940300810
      57   19  2   0.42380     -3.929935629490      2.822274698430     -4.025335891290
      58   20  1  -0.84760     -8.410539064230     14.873342899700      8.368020381700
      59   20  2   0.42380     -8.685886866070     13.941163374500      8.133020550020
      60   20  2   0.42380     -7.440465160200     14.997038446900      8.159080121520
      61   21  1  -0.84760     12.122035941000     -2.994883039870    -17.256251152200
      62   21  2   0.42380     11.937329833600     -2.016113397280    -17.167404989300
      63   21  2   0.42380     12.895437475100     -3.242448723720    -16.672674851000
      64   22  1  -0.84760     16.421038739500      8.919058292500    -13.221998648200
      65   22  2   0.42380     15.704524960700      9.605491815570    -13.346163954100
      66   22  2   0.42380     17.113054938400      9.026709578440    -13.935808693800
      67   23  1  -0.84760    -12.931911766700    -17.416952816600    -14.204217142100
      68   23  2   0.42380    -13.819501757600    -17.758272024431    -13.894886887400
      69   23  2   0.42380    -12.933152026600    -17.340831788400    -15.201314956200
      70   24  1  -0.84760     13.082145119300     -8.837840446130      8.469560285550
      71   24  2   0.42380     13.976236560300     -8.518839423300      8.155173831450
      72   24  2   0.42380     12.542193057600     -9.142579529080      7.684967485120
      73   25  1  -0.84760     -5.704615547250     -5.874397672310    -11.845309476300
      74   25  2   0.42380     -5.524990319970     -5.018509699370    -11.360344987400
      75   25  2   0.42380     -4.837034515400     -6.310681930010    -12.083970741800
      76   26  1  -0.84760      8.974642773450      6.179158688160      1.642270111190
      77   26  2   0.42380      9.293548384550      5.287546949090      1.963716402120
      78   26  2   0.42380      7.978801429450      6.225156629430      1.720909840200
      79   27  1  -0.84760      7.683769160680      0.049461008640      0.358322187917
      80   27  2   0.42380      6.773880509100      0.463916205291      0.340169180250
      81   27  2   0.42380      8.378080969830      0.767230548911      0.305996298241
      82   28  1  -0.84760     -7.789572946100      6.373832691650     -3.029726624410
      83   28  2   0.42380     -8.244636255550      6.024911671230     -3.848977200170
      84   28  2   0.42380     -8.204569545680      7.243620379650     -2.762804912770
      85   29  1  -0.84760      0.022300407398     14.264140852100     -0.510663362799
      86   29  2   0.42380      0.294301239994     13.585896814200      0.171978982848
      87   29  2   0.42380     -0.768718074106     14.775849763800     -0.175337026844
      88   30  1  -0.84760     -1.509921199450    -16.942524960200    -13.201950730800
      89   30  2   0.42380     -2.309462846390    -16.802885939200    -12.617798269000
      90   30  2   0.42380     -1.784694116210    -17.426020338400    -14.033053650700
      91   31  1  -0.84760     14.958699730300      2.115626994860      7.190687686120
      92   31  2   0.42380     14.977536179900      2.360741105690      6.221376456000
      93   31  2   0.42380     14.434979958700      2.800342329360      7.697523469710
      94   32  1  -0.84760      0.539362324241     15.573708461900      9.433717858330
      95   32  2   0.42380     -0.311861603898     16.085999640300      9.547628229420
      96   32  2   0.42380      1.154458404120     16.079592646200      8.828955091170
      97   33  1  -0.84760    -12.673212816300     -7.410318718720    -10.070814269300
      98   33  2   0.42380    -11.793137414000     -7.144594270400    -10.464334032300
      99   33  2   0.42380    -13.215200425200     -6.591227175330     -9.882828963220
     100   34  1  -0.84760     -6.722099141030    -10.166835055400     -8.066050841660
     101   34  2   0.42380     -6.906751152540    -10.639760544600     -7.204514355940
     102   34  2   0.42380     -5.793580823060    -10.379287120400     -8.370546906080
     103   35  1  -0.84760      7.782965453710    -11.089178497800    -12.794935043900
     104   35  2   0.42380      7.342299620610    -10.497844404300    -12.119555437000
     105   35  2   0.42380      8.436958914460    -11.690198855200    -12.335514666500
     106   36  1  -0.84760      0.697144187377      9.851972098730     16.571376033200
     107   36  2   0.42380      1.582211932230     10.219826550800     16.286177525000
     108   36  2   0.42380      0.830934346849      9.207918837490     17.324566307900
     109   37  1  -0.84760      7.426558669800      4.040401941680     -1.294610906480
     110   37  2   0.42380      8.316141617500      4.451154259740     -1.494422598730
     111   37  2   0.42380      7.036380630530      4.470088589050     -0.480282666306
     112   38  1  -0.84760    -14.690818380200    -12.918078454600    -10.381263150000
     113   38  2   0.42380    -15.021338156400    -13.736818099400    -10.850754440300
     114   38  2   0.42380    -14.909915365400    -12.109439806100    -10.927248541100
     115   39  1  -0.84760      4.367785244990     12.880579586100    -15.745449422200
     116   39  2   0.42380      4.946178891780     13.637648579100    -15.441628209700
     117   39  2   0.42380      3.617284752120     13.237019892300    -16.301955772900
     118   40  1  -0.84760      5.616359868530     13.063432482600     14.808827875800
     119   40  2   0.42380      6.231779488270     12.277890606800     14.873501309000
     120   40  2   0.42380      6.153755954230     13.906182990000     14.777570406400
     121   41  1  -0.84760     -9.510616700630    -10.524682465900     13.937442323400
     122   41  2   0.42380     -8.853751205720    -10.226310534100     14.629903089100
     123   41  2   0.42380     -9.316807252490    -10.061458479500     13.072652501400
     124   42  1  -0.84760     14.470806827800    -16.957842278900    -11.243325051000
     125   42  2   0.42380     14.640607290600    -17.678630098600    -10.571288800800
     126   42  2   0.42380     14.567629809000    -17.332377113400    -12.165468731800
     127   43  1  -0.84760    -11.769506276500      1.441144447940     -9.889978863890
     128   43  2   0.42380    -11.510532956700      0.773620258220     -9.191878387060
     129   43  2   0.42380    -12.675382712800      1.214704035850    -10.247907099700
     130   44  1  -0.84760     -5.403350225700      2.669406838680     -8.728610558080
     131   44  2   0.42380     -6.252468060500      2.616964885350     -8.203016851730
     132   44  2   0.42380     -4.830456323480      1.877771339440     -8.516229266200
     133   45  1  -0.84760      3.332366142370      6.758804647640     10.825365063100
     134   45  2   0.42380      3.305912216690      6.264712497350      9.956358079960
     135   45  2   0.42380      3.740174329990      7.660808249230     10.683654143200
     136   46  1  -0.84760     -3.777244275480     10.787922595200      5.747654918760
     137   46  2   0.42380     -2.848178573710     11.087174327400      5.965106804400
     138   46  2   0.42380     -3.827265474640     10.530647934300      4.782612107030
     139   47  1  -0.84760      6.255419938620     -9.282564343170     12.593381141200
     140   47  2   0.42380      5.938575612650     -8.437293281050     13.023644438100
     141   47  2   0.42380      5.712355814470     -9.463019283070     11.773309576200
     142   48  1  -0.84760      8.956088127390     -9.504895489310    -17.404687891700
     143   48  2   0.42380      8.335016124010     -8.920197115150    -16.882770869700
     144   48  2   0.42380      9.619497339840     -9.923743633980    -16.784643983200
     145   49  1  -0.84760     -4.207079661510      1.042785765430    -17.042575681300
     146   49  2   0.42380     -4.638527609040      0.896043504048    -16.152452444200
     147   49  2   0.42380     -3.244574959860      1.280204272650    -16.911361536800
     148   50  1  -0.84760     -9.892141115250      4.135987598950     -6.216398461080
     149   50  2   0.42380    -10.170484062400      3.301616418160     -5.740635982090
     150   50  2   0.42380     -8.902351697760      4.124275447480     -6.358453853570
     151   51  1  -0.84760     10.246308713900     15.539265148900     13.908277476900
     152   51  2   0.42380     10.813457048900     15.690103401700     14.717962963700
     153   51  2   0.42380      9.317037605490     15.302321974500     14.191673205900
     154   52  1  -0.84760      7.251224017450     -4.381177018140     -3.448012729410
     155   52  2   0.42380      6.883375744280     -4.881480097480     -2.664185913900
     156   52  2   0.42380      8.248044275390     -4.340510089120     -3.379488469040
     157   53  1  -0.84760     -8.553446176250     -8.565980159030      3.195306611770
     158   53  2   0.42380     -8.595656304420     -7.595262164030      2.958822195230
     159   53  2   0.42380     -9.323620429320     -9.045343441280      2.774542469360
     160   54  1  -0.84760     -6.151961251530     -4.453887832320      2.238171403350
     161   54  2   0.42380     -5.557975618380     -5.230640756620      2.028801008610
     162   54  2   0.42380     -7.022667940370     -4.787907597920      2.599143228000
     163   55  1  -0.84760     17.313254944200     -3.896253923240     -5.569143824290
     164   55  2   0.42380     17.465265745200     -4.880943037070     -5.654467124160
     165   55  2   0.42380     17.502497645700     -3.609930490300     -4.629885557530
     166   56  1  -0.84760     -6.962977941690     -4.916958309830     13.964038683300
     167   56  2   0.42380     -6.079789258840     -4.980369658410     13.499327212200
     168   56  2   0.42380     -7.189550667250     -5.801671681590     14.371404673400
     169   57  1  -0.84760      2.876186857080      9.051062702430      9.531885895630
     170   57  2   0.42380      2.185836005470      8.604714010830     10.101261472200
     171   57  2   0.42380      3.417270547810      9.677156445060     10.093343877200
     172   58  1  -0.84760     -7.432621142620      3.760418557750     16.441522822700
     173   58  2   0.42380     -6.696997765870      3.700738407010     15.766766179700
     174   58  2   0.42380     -7.740352760370      2.839690866260     16.681443162700
     175   59  1  -0.84760    -11.896992936600      1.590259168370     -1.491841620040
     176   59  2   0.42380    -11.447758545100      1.015483207590     -2.175816075950
     177   59  2   0.42380    -11.403045223900      1.524502459770     -0.624840055845
     178   60  1  -0.84760     -3.083358492890     11.958105675300     11.040110062700
     179   60  2   0.42380     -4.001251019590     12.186482424500     11.364636440400
     180   60  2   0.42380     -2.986203807120     12.243850365400     10.086741855200
     181   61  1  -0.84760     -9.063392204100     16.806265676000     -2.213582256640
     182   61  2   0.42380     -9.481751275980     15.913138678900     -2.048355582170
     183   61  2   0.42380     -9.325747836270     17.134482357300     -3.121020040960
     184   62  1  -0.84760     -9.991647944770    -17.025851984300      3.378344372810
     185   62  2   0.42380    -10.541364548400    -17.672260385500      3.907464240660
     186   62  2   0.42380     -9.657886053070    -16.300871453800      3.980844356210
     187   63  1  -0.84760     -7.884900658680     15.218131067200    -14.342272963300
     188   63  2   0.42380     -8.487915713430     15.446427545700    -15.106637772600
     189   63  2   0.42380     -8.272429843660     15.577223056500    -13.493229929100
     190   64  1  -0.84760    -10.234169821000      9.493783767530    -13.311699532700
     191   64  2   0.42380     -9.859974231360     10.021292029200    -12.548998612000
     192   64  2   0.42380    -10.069486294300      9.983239184260    -14.168036342100
     193   65  1  -0.84760     -8.696623063550     -4.731505746170    -10.676681469600
     194   65  2   0.42380     -8.001987189070     -5.433387214790    -10.834299380700
     195   65  2   0.42380     -9.433224515580     -4.835546327020    -11.344958252400
     196   66  1  -0.84760     -0.645588980111    -17.614010533000     12.379663982800
     197   66  2   0.42380     -0.346590316437    -16.663800781100     12.467420615200
     198   66  2   0.42380     -1.476042897270    -17.753289447231     12.919059640500
     199   67  1  -0.84760    -14.341598433900    -13.660524580100      5.438547573130
     200   67  2   0.42380    -14.927759288700    -14.114106983800      4.767221679590
     201   67  2   0.42380    -14.265205930100    -12.689466735100      5.212249435880
     202   68  1  -0.84760     -9.281905375290     -3.324556500780     13.121462126900
     203   68  2   0.42380     -8.511340780400     -3.790075998640     13.556803145200
     204   68  2   0.42380    -10.137229901900     -3.640017375460     13.532441920500
     205   69  1  -0.84760     -2.119304460050    -14.202018209400      2.111682124060
     206   69  2   0.42380     -2.271614026790    -15.038556575900      2.637995108190
     207   69  2   0.42380     -2.922668528050    -13.611079936400      2.185154103730
     208   70  1  -0.84760     13.652392336300    -12.838639852300      0.922601050507
     209   70  2   0.42380     13.311051919000    -12.002922801300      1.352791392250
     210   70  2   0.42380     14.186431463700    -13.361395145700      1.587077621700
     211   71  1  -0.84760      9.347623410260      1.425629214470     14.643741437400
     212   71  2   0.42380     10.205142721400      1.631091136400     14.172099592700
     213   71  2   0.42380      9.259838194840      0.436279759278     14.759850918000
     214   72  1  -0.84760      1.951074411790     -4.679252308330     10.161588810700
     215   72  2   0.42380      1.662411352030     -4.339411414580      9.266501214500
     216   72  2   0.42380      1.188575275090     -5.156155247540     10.598805751200
     217   73  1  -0.84760     17.463862560300      5.789888958620    -13.693488743500
     218   73  2   0.42380     17.926178234131      5.718437994480    -14.577320728400
     219   73  2   0.42380     17.611241645500      6.702890306950    -13.313083770900
     220   74  1  -0.84760      0.119811730644     -8.438343259330    -13.852253488100
     221   74  2   0.42380      0.002964255961     -8.983390403050    -14.682476517700
     222   74  2   0.42380      1.017836422300     -8.625674588160    -13.454184867900
     223   75  1  -0.84760      8.672328583880     -9.606592580970      4.643703030060
     224   75  2   0.42380      8.540179795680     -8.821453326760      4.038646793610
     225   75  2   0.42380      8.039902921100     -9.542651932650      5.415680603930
     226   76  1  -0.84760     -3.114528463840      8.162502781520     -8.092310575080
     227   76  2   0.42380     -2.937782109120      8.364490305110     -9.055618296630
     228   76  2   0.42380     -3.869369402430      7.510425454190     -8.021526985140
     229   77  1  -0.84760      9.151616502660      3.840177829160    -17.171060854900
     230   77  2   0.42380      9.001208488560      4.661278702010    -16.620451387200
     231   77  2   0.42380     10.120248069100      3.771901234780    -17.409998493600
     232   78  1  -0.84760    -17.552464147400     -9.750987069950     16.456143637000
     233   78  2   0.42380    -16.658572364500     -9.450557299550     16.788858881000
     234   78  2   0.42380    -17.454790267900    -10.133593267100     15.537409556200
     235   79  1  -0.84760      5.702638331200     -5.387729473070     -5.770699246890
     236   79  2   0.42380      4.879526321000     -4.878449127060     -5.519462012730
     237   79  2   0.42380      6.510444617230     -4.828456065030     -5.584521215680
     238   80  1  -0.84760     13.700141299600      5.280022262060     15.332083348100
     239   80  2   0.42380     14.689739185600      5.353313848000     15.455874976900
     240   80  2   0.42380     13.330408463000      6.170790625300     15.067830907100
     241   81  1  -0.84760     14.661706621100     16.730326529700    -17.304578233600
     242   81  2   0.42380     15.476919797300     16.193342281600    -17.521546882500
     243   81  2   0.42380     14.690277372100     17.006216826900    -16.343813821300
     244   82  1  -0.84760      8.790389123570     -5.513774057720     -5.854966860470
     245   82  2   0.42380      9.032886062690     -5.489458044010     -6.824814253620
     246   82  2   0.42380      9.337482137700     -4.840474552460     -5.357616872920
     247   83  1  -0.84760    -14.169980887300      5.930039191120      4.279405153860
     248   83  2   0.42380    -13.351905389900      5.977238214220      3.706234382780
     249   83  2   0.42380    -14.979278239400      5.842234864210      3.698605536100
     250   84  1  -0.84760      6.313908386570     15.616202396400      0.344827518287
     251   84  2   0.42380      6.464300356340     15.297966121200      1.280833890350
     252   84  2   0.42380      7.069934957440     16.209824398100      0.069079910433
     253   85  1  -0.84760     15.628877216800    -10.613292168700      0.288443132494
     254   85  2   0.42380     14.911668268500     -9.943558383540      0.095912663522
     255   85  2   0.42380     15.225034392500    -11.526138074800      0.348637193716
     256   86  1  -0.84760      5.247213668390     11.504983248600     -5.227511075940
     257   86  2   0.42380      5.992224802170     11.106724771900     -4.692395577840
     258   86  2   0.42380      5.623665605500     11.967768009000     -6.030078334570
     259   87  1  -0.84760      5.859323515930     10.706973049400      7.958591166100
     260   87  2   0.42380      5.093065531680     10.182107932000      8.329219430230
     261   87  2   0.42380      6.387262991180     11.102118614400      8.710349034660
     262   88  1  -0.84760     -3.780024400350     15.204715116200     -9.394383778170
     263   88  2   0.42380     -4.226978172010     14.999828242900    -10.265161416300
     264   88  2   0.42380     -4.472598273570     15.308501375900     -8.680542169380
     265   89  1  -0.84760      1.367658140760      5.471396830160     -9.223855770840
     266   89  2   0.42380      1.023268612510      6.407122938190     -9.300095547760
     267   89  2   0.42380      2.136667067220      5.347129438950     -9.850898741050
     268   90  1  -0.84760    -16.808274082900    -17.569297135600     15.765489795700
     269   90  2   0.42380    -16.778572637400    -16.571413567200     15.707643377500
     270   90  2   0.42380    -17.739207835831    -17.886135355831     15.583897147800
     271   91  1  -0.84760      8.040887222180     16.635415251200    -17.455799696700
     272   91  2   0.42380      8.485143174380     17.527052825100    -17.368512322200
     273   91  2   0.42380      7.681221471210     16.531573365900    -18.383084663931
     274   92  1  -0.84760    -14.512329317800     15.974198707700     -3.310987952570
     275   92  2   0.42380    -15.375185573000     15.540353277400     -3.570327932900
     276   92  2   0.42380    -14.700956544700     16.798962420600     -2.777898291080
     277   93  1  -0.84760     -7.832059377050     -5.824837217680    -13.985083486900
     278   93  2   0.42380     -7.282906278160     -6.207778614710    -14.727906992400
     279   93  2   0.42380     -7.268964389550     -5.741853594260    -13.162868336600
     280   94  1  -0.84760     -6.191087430890     -7.277714828520      5.429209609940
     281   94  2   0.42380     -6.594672410170     -8.154847801590      5.168908030890
     282   94  2   0.42380     -6.222322213930     -7.178494223990      6.423784725240
     283   95  1  -0.84760    -15.259679468300      2.977652773730     -1.163154947170
     284   95  2   0.42380    -15.464748040100      3.953703268430     -1.090544254800
     285   95  2   0.42380    -14.645082297400      2.822830454450     -1.936653729940
     286   96  1  -0.84760    -13.917256742900     -4.310347227030      3.471702302200
     287   96  2   0.42380    -14.664127584200     -3.668938891670      3.647142587260
     288   96  2   0.42380    -13.066657870100     -3.802387263340      3.335841222550
     289   97  1  -0.84760     -4.954052291760    -12.877720753400      0.099844082976
     290   97  2   0.42380     -4.436129881900    -13.533923452300     -0.448931276713
     291   97  2   0.42380     -4.990297528680    -11.999529863700     -0.377090969222
     292   98  1  -0.84760    -15.534000612700    -16.047277294700     -4.279328587350
     293   98  2   0.42380    -15.405331165200    -15.930178990000     -5.264078383150
     294   98  2   0.42380    -15.648351750900    -15.151731297100     -3.849303956070
     295   99  1  -0.84760    -15.888545202800    -14.874467100200     10.115983662900
     296   99  2   0.42380    -15.613834855100    -15.238849666000      9.226174935920
     297   99  2   0.42380    -15.520757177900    -13.951087164000     10.225990308600
     298  100  1  -0.84760      1.322540981510     14.331419079400      4.094636062390
     299  100  2   0.42380      0.325603071148     14.312122861300      4.170415075660
     300  100  2   0.42380      1.628276809730     13.569071312000      3.524240160430
     301  101  1  -0.84760    -12.035312568500     12.177159150100    -11.318680584400
     302  101  2   0.42380    -11.823452632200     13.142002976500    -11.474217583300
     303  101  2   0.42380    -13.025651325800     12.043314071100    -11.354938559800
     304  102  1  -0.84760    -14.909065646800     15.690189007200     -7.649726425650
     305  102  2   0.42380    -13.982224219100     15.622816279900     -7.280367679310
     306  102  2   0.42380    -15.348303256600     14.792541467200     -7.613681786010
     307  103  1  -0.84760     13.751297751400      8.715426539520    -16.204407958500
     308  103  2   0.42380     12.797268950000      8.815263269780    -15.921809881000
     309  103  2   0.42380     14.030014366800      7.760163455000    -16.105466118500
     310  104  1  -0.84760    -17.738140924800     -9.069388932380      9.320009534400
     311  104  2   0.42380    -17.657152549800     -9.208311458800     10.306995560000
     312  104  2   0.42380    -17.508568758000     -9.918320939270      8.843972699770
     313  105  1  -0.84760     12.600097884800     14.304900315000      7.338233063920
     314  105  2   0.42380     11.664533472700     13.952463935600      7.315698000000
     315  105  2   0.42380     13.080537281300     14.028504305800      6.505897054600
     316  106  1  -0.84760     -4.507723924800    -14.711596465100    -17.535994946600
     317  106  2   0.42380     -4.262165535490    -13.905329659600    -18.074172348331
     318  106  2   0.42380     -4.549146043830    -14.465936668400    -16.567524259200
     319  107  1  -0.84760     -3.556975291550      4.275246737920     -7.651584827120
     320  107  2   0.42380     -4.412592751810      3.759202105590     -7.691793024500
     321  107  2   0.42380     -2.784510551420      3.640193456380     -7.649227952890
     322  108  1  -0.84760     11.308355154400     14.608046242000    -10.446502598000
     323  108  2   0.42380     11.324347289100     13.771275116000     -9.899183372740
     324  108  2   0.42380     10.360623669200     14.887237614800    -10.600960389300
     325  109  1  -0.84760     11.471811498700    -14.290920990000    -16.886162823100
     326  109  2   0.42380     10.990842827300    -15.160229800300    -17.000054567600
     327  109  2   0.42380     10.921650495800    -13.552113791400    -17.275375867800
     328  110  1  -0.84760     -3.230869136370     16.500288147900     -2.441923921520
     329  110  2   0.42380     -4.142936324500     16.104384693700     -2.548666130940
     330  110  2   0.42380     -2.677029532190     16.282988339700     -3.245691603240
     331  111  1  -0.84760    -16.750897340000     13.449643817200      3.840599972450
     332  111  2   0.42380    -16.305672873300     14.055597507100      3.181361548280
     333  111  2   0.42380    -17.299509726900     13.993514931800      4.475602853960
     334  112  1  -0.84760      0.122704792090      1.368074220650      6.587935178360
     335  112  2   0.42380      0.317555191755      1.063037434590      5.655741056460
     336  112  2   0.42380      0.981940002569      1.495561735110      7.083376180630
     337  113  1  -0.84760      1.501606758510     -9.522780083220     -0.458898542080
     338  113  2   0.42380      2.411324601360     -9.934160207820     -0.515288607700
     339  113  2   0.42380      1.120391829510     -9.680427646220      0.452047353010
     340  114  1  -0.84760     -8.031388728070     -5.752561322560     -6.406031054330